ITEM: TIMESTEP
0
ITEM: NUMBER OF ATOMS
1
ITEM: BOX BOUNDS ff ff ff
-8 161
-8 161
-50 50
ITEM: ATOMS id type xs ys zs
1 2 0.52071 0.52071 0.45
ITEM: TIMESTEP
10
ITEM: NUMBER OF ATOMS
1
ITEM: BOX BOUNDS ff ff ff
-8 161
-8 161
-50 50
ITEM: ATOMS id type xs ys zs
1 2 0.52071 0.52071 0.45
ITEM: TIMESTEP
20
ITEM: NUMBER OF ATOMS
1
ITEM: BOX BOUNDS ff ff ff
-8 161
-8 161
-50 50
ITEM: ATOMS id type xs ys zs
1 2 0.52071 0.52071 0.45
ITEM: TIMESTEP
30
ITEM: NUMBER OF ATOMS
1
ITEM: BOX BOUNDS ff ff ff
-8 161
-8 161
-50 50
ITEM: ATOMS id type xs ys zs
1 2 0.52071 0.52071 0.45
ITEM: TIMESTEP
40
ITEM: NUMBER OF ATOMS
1
ITEM: BOX BOUNDS ff ff ff
-8 161
-8 161
-50 50
ITEM: ATOMS id type xs ys zs
1 2 0.52071 0.52071 0.450001
ITEM: TIMESTEP
50
ITEM: NUMBER OF ATOMS
1
ITEM: BOX BOUNDS ff ff ff
-8 161
-8 161
-50 50
ITEM: ATOMS id type xs ys zs
1 2 0.52071 0.52071 0.450001
ITEM: TIMESTEP
60
ITEM: NUMBER OF ATOMS
1
ITEM: BOX BOUNDS ff ff ff
-8 161
-8 161
-50 50
ITEM: ATOMS id type xs ys zs
1 2 0.52071 0.52071 0.450001
ITEM: TIMESTEP
70
ITEM: NUMBER OF ATOMS
1
ITEM: BOX BOUNDS ff ff ff
-8 161
-8 161
-50 50
ITEM: ATOMS id type xs ys zs
1 2 0.52071 0.52071 0.450002
ITEM: TIMESTEP
80
ITEM: NUMBER OF ATOMS
1
ITEM: BOX BOUNDS ff ff ff
-8 161
-8 161
-50 50
ITEM: ATOMS id type xs ys zs
1 2 0.52071 0.52071 0.450002
ITEM: TIMESTEP
90
ITEM: NUMBER OF ATOMS
1
ITEM: BOX BOUNDS ff ff ff
-8 161
-8 161
-50 50
ITEM: ATOMS id type xs ys zs
1 2 0.52071 0.52071 0.450003
ITEM: TIMESTEP
100
ITEM: NUMBER OF ATOMS
1
ITEM: BOX BOUNDS ff ff ff
-8 161
-8 161
-50 50
ITEM: ATOMS id type xs ys zs
1 2 0.52071 0.52071 0.450003
ITEM: TIMESTEP
110
ITEM: NUMBER OF ATOMS
1
ITEM: BOX BOUNDS ff ff ff
-8 161
-8 161
-50 50
ITEM: ATOMS id type xs ys zs
1 2 0.52071 0.52071 0.450004
ITEM: TIMESTEP
120
ITEM: NUMBER OF ATOMS
1
ITEM: BOX BOUNDS ff ff ff
-8 161
-8 161
-50 50
ITEM: ATOMS id type xs ys zs
1 2 0.52071 0.52071 0.450005
ITEM: TIMESTEP
130
ITEM: NUMBER OF ATOMS
1
ITEM: BOX BOUNDS ff ff ff
-8 161
-8 161
-50 50
ITEM: ATOMS id type xs ys zs
1 2 0.52071 0.52071 0.450006
ITEM: TIMESTEP
140
ITEM: NUMBER OF ATOMS
1
ITEM: BOX BOUNDS ff ff ff
-8 161
-8 161
-50 50
ITEM: ATOMS id type xs ys zs
1 2 0.52071 0.52071 0.450007
ITEM: TIMESTEP
150
ITEM: NUMBER OF ATOMS
1
ITEM: BOX BOUNDS ff ff ff
-8 161
-8 161
-50 50
ITEM: ATOMS id type xs ys zs
1 2 0.52071 0.52071 0.450008
ITEM: TIMESTEP
160
ITEM: NUMBER OF ATOMS
1
ITEM: BOX BOUNDS ff ff ff
-8 161
-8 161
-50 50
ITEM: ATOMS id type xs ys zs
1 2 0.52071 0.52071 0.450009
ITEM: TIMESTEP
170
ITEM: NUMBER OF ATOMS
1
ITEM: BOX BOUNDS ff ff ff
-8 161
-8 161
-50 50
ITEM: ATOMS id type xs ys zs
1 2 0.52071 0.52071 0.45001
ITEM: TIMESTEP
180
ITEM: NUMBER OF ATOMS
1
ITEM: BOX BOUNDS ff ff ff
-8 161
-8 161
-50 50
ITEM: ATOMS id type xs ys zs
1 2 0.52071 0.52071 0.450011
ITEM: TIMESTEP
190
ITEM: NUMBER OF ATOMS
1
ITEM: BOX BOUNDS ff ff ff
-8 161
-8 161
-50 50
ITEM: ATOMS id type xs ys zs
1 2 0.52071 0.52071 0.450013
ITEM: TIMESTEP
200
ITEM: NUMBER OF ATOMS
1
ITEM: BOX BOUNDS ff ff ff
-8 161
-8 161
-50 50
ITEM: ATOMS id type xs ys zs
1 2 0.52071 0.52071 0.450014
ITEM: TIMESTEP
210
ITEM: NUMBER OF ATOMS
1
ITEM: BOX BOUNDS ff ff ff
-8 161
-8 161
-50 50
ITEM: ATOMS id type xs ys zs
1 2 0.52071 0.52071 0.450015
ITEM: TIMESTEP
220
ITEM: NUMBER OF ATOMS
1
ITEM: BOX BOUNDS ff ff ff
-8 161
-8 161
-50 50
ITEM: ATOMS id type xs ys zs
1 2 0.52071 0.52071 0.450017
ITEM: TIMESTEP
230
ITEM: NUMBER OF ATOMS
1
ITEM: BOX BOUNDS ff ff ff
-8 161
-8 161
-50 50
ITEM: ATOMS id type xs ys zs
1 2 0.52071 0.52071 0.450019
ITEM: TIMESTEP
240
ITEM: NUMBER OF ATOMS
1
ITEM: BOX BOUNDS ff ff ff
-8 161
-8 161
-50 50
ITEM: ATOMS id type xs ys zs
1 2 0.52071 0.52071 0.45002
ITEM: TIMESTEP
250
ITEM: NUMBER OF ATOMS
1
ITEM: BOX BOUNDS ff ff ff
-8 161
-8 161
-50 50
ITEM: ATOMS id type xs ys zs
1 2 0.52071 0.52071 0.450022
ITEM: TIMESTEP
260
ITEM: NUMBER OF ATOMS
1
ITEM: BOX BOUNDS ff ff ff
-8 161
-8 161
-50 50
ITEM: ATOMS id type xs ys zs
1 2 0.52071 0.52071 0.450024
ITEM: TIMESTEP
270
ITEM: NUMBER OF ATOMS
1
ITEM: BOX BOUNDS ff ff ff
-8 161
-8 161
-50 50
ITEM: ATOMS id type xs ys zs
1 2 0.52071 0.52071 0.450026
ITEM: TIMESTEP
280
ITEM: NUMBER OF ATOMS
1
ITEM: BOX BOUNDS ff ff ff
-8 161
-8 161
-50 50
ITEM: ATOMS id type xs ys zs
1 2 0.52071 0.52071 0.450027
ITEM: TIMESTEP
290
ITEM: NUMBER OF ATOMS
1
ITEM: BOX BOUNDS ff ff ff
-8 161
-8 161
-50 50
ITEM: ATOMS id type xs ys zs
1 2 0.52071 0.52071 0.450029
ITEM: TIMESTEP
300
ITEM: NUMBER OF ATOMS
1
ITEM: BOX BOUNDS ff ff ff
-8 161
-8 161
-50 50
ITEM: ATOMS id type xs ys zs
1 2 0.52071 0.52071 0.450032
ITEM: TIMESTEP
310
ITEM: NUMBER OF ATOMS
1
ITEM: BOX BOUNDS ff ff ff
-8 161
-8 161
-50 50
ITEM: ATOMS id type xs ys zs
1 2 0.52071 0.52071 0.450039
ITEM: TIMESTEP
320
ITEM: NUMBER OF ATOMS
1
ITEM: BOX BOUNDS ff ff ff
-8 161
-8 161
-50 50
ITEM: ATOMS id type xs ys zs
1 2 0.52071 0.52071 0.450058
ITEM: TIMESTEP
330
ITEM: NUMBER OF ATOMS
1
ITEM: BOX BOUNDS ff ff ff
-8 161
-8 161
-50 50
ITEM: ATOMS id type xs ys zs
1 2 0.52071 0.52071 0.450087
ITEM: TIMESTEP
340
ITEM: NUMBER OF ATOMS
1
ITEM: BOX BOUNDS ff ff ff
-8 161
-8 161
-50 50
ITEM: ATOMS id type xs ys zs
1 2 0.52071 0.52071 0.450128
ITEM: TIMESTEP
350
ITEM: NUMBER OF ATOMS
1
ITEM: BOX BOUNDS ff ff ff
-8 161
-8 161
-50 50
ITEM: ATOMS id type xs ys zs
1 2 0.52071 0.52071 0.45018
ITEM: TIMESTEP
360
ITEM: NUMBER OF ATOMS
1
ITEM: BOX BOUNDS ff ff ff
-8 161
-8 161
-50 50
ITEM: ATOMS id type xs ys zs
1 2 0.52071 0.52071 0.450242
ITEM: TIMESTEP
370
ITEM: NUMBER OF ATOMS
1
ITEM: BOX BOUNDS ff ff ff
-8 161
-8 161
-50 50
ITEM: ATOMS id type xs ys zs
1 2 0.52071 0.52071 0.450316
ITEM: TIMESTEP
380
ITEM: NUMBER OF ATOMS
1
ITEM: BOX BOUNDS ff ff ff
-8 161
-8 161
-50 50
ITEM: ATOMS id type xs ys zs
1 2 0.52071 0.52071 0.450401
ITEM: TIMESTEP
390
ITEM: NUMBER OF ATOMS
1
ITEM: BOX BOUNDS ff ff ff
-8 161
-8 161
-50 50
ITEM: ATOMS id type xs ys zs
1 2 0.52071 0.52071 0.450497
ITEM: TIMESTEP
400
ITEM: NUMBER OF ATOMS
1
ITEM: BOX BOUNDS ff ff ff
-8 161
-8 161
-50 50
ITEM: ATOMS id type xs ys zs
1 2 0.52071 0.52071 0.450603
ITEM: TIMESTEP
410
ITEM: NUMBER OF ATOMS
1
ITEM: BOX BOUNDS ff ff ff
-8 161
-8 161
-50 50
ITEM: ATOMS id type xs ys zs
1 2 0.52071 0.52071 0.450721
ITEM: TIMESTEP
420
ITEM: NUMBER OF ATOMS
1
ITEM: BOX BOUNDS ff ff ff
-8 161
-8 161
-50 50
ITEM: ATOMS id type xs ys zs
1 2 0.52071 0.52071 0.45085
ITEM: TIMESTEP
430
ITEM: NUMBER OF ATOMS
1
ITEM: BOX BOUNDS ff ff ff
-8 161
-8 161
-50 50
ITEM: ATOMS id type xs ys zs
1 2 0.52071 0.52071 0.45099
ITEM: TIMESTEP
440
ITEM: NUMBER OF ATOMS
1
ITEM: BOX BOUNDS ff ff ff
-8 161
-8 161
-50 50
ITEM: ATOMS id type xs ys zs
1 2 0.52071 0.52071 0.45114
ITEM: TIMESTEP
450
ITEM: NUMBER OF ATOMS
1
ITEM: BOX BOUNDS ff ff ff
-8 161
-8 161
-50 50
ITEM: ATOMS id type xs ys zs
1 2 0.52071 0.52071 0.451302
ITEM: TIMESTEP
460
ITEM: NUMBER OF ATOMS
1
ITEM: BOX BOUNDS ff ff ff
-8 161
-8 161
-50 50
ITEM: ATOMS id type xs ys zs
1 2 0.52071 0.52071 0.451475
ITEM: TIMESTEP
470
ITEM: NUMBER OF ATOMS
1
ITEM: BOX BOUNDS ff ff ff
-8 161
-8 161
-50 50
ITEM: ATOMS id type xs ys zs
1 2 0.52071 0.52071 0.451659
ITEM: TIMESTEP
480
ITEM: NUMBER OF ATOMS
1
ITEM: BOX BOUNDS ff ff ff
-8 161
-8 161
-50 50
ITEM: ATOMS id type xs ys zs
1 2 0.52071 0.52071 0.451854
ITEM: TIMESTEP
490
ITEM: NUMBER OF ATOMS
1
ITEM: BOX BOUNDS ff ff ff
-8 161
-8 161
-50 50
ITEM: ATOMS id type xs ys zs
1 2 0.52071 0.52071 0.452059
ITEM: TIMESTEP
500
ITEM: NUMBER OF ATOMS
1
ITEM: BOX BOUNDS ff ff ff
-8 161
-8 161
-50 50
ITEM: ATOMS id type xs ys zs
1 2 0.52071 0.52071 0.452276
ITEM: TIMESTEP
510
ITEM: NUMBER OF ATOMS
1
ITEM: BOX BOUNDS ff ff ff
-8 161
-8 161
-50 50
ITEM: ATOMS id type xs ys zs
1 2 0.52071 0.52071 0.452504
ITEM: TIMESTEP
520
ITEM: NUMBER OF ATOMS
1
ITEM: BOX BOUNDS ff ff ff
-8 161
-8 161
-50 50
ITEM: ATOMS id type xs ys zs
1 2 0.52071 0.52071 0.452743
ITEM: TIMESTEP
530
ITEM: NUMBER OF ATOMS
1
ITEM: BOX BOUNDS ff ff ff
-8 161
-8 161
-50 50
ITEM: ATOMS id type xs ys zs
1 2 0.52071 0.52071 0.452992
ITEM: TIMESTEP
540
ITEM: NUMBER OF ATOMS
1
ITEM: BOX BOUNDS ff ff ff
-8 161
-8 161
-50 50
ITEM: ATOMS id type xs ys zs
1 2 0.52071 0.52071 0.453253
ITEM: TIMESTEP
550
ITEM: NUMBER OF ATOMS
1
ITEM: BOX BOUNDS ff ff ff
-8 161
-8 161
-50 50
ITEM: ATOMS id type xs ys zs
1 2 0.52071 0.52071 0.453525
ITEM: TIMESTEP
560
ITEM: NUMBER OF ATOMS
1
ITEM: BOX BOUNDS ff ff ff
-8 161
-8 161
-50 50
ITEM: ATOMS id type xs ys zs
1 2 0.52071 0.52071 0.453808
ITEM: TIMESTEP
570
ITEM: NUMBER OF ATOMS
1
ITEM: BOX BOUNDS ff ff ff
-8 161
-8 161
-50 50
ITEM: ATOMS id type xs ys zs
1 2 0.52071 0.52071 0.454102
ITEM: TIMESTEP
580
ITEM: NUMBER OF ATOMS
1
ITEM: BOX BOUNDS ff ff ff
-8 161
-8 161
-50 50
ITEM: ATOMS id type xs ys zs
1 2 0.52071 0.52071 0.454406
ITEM: TIMESTEP
590
ITEM: NUMBER OF ATOMS
1
ITEM: BOX BOUNDS ff ff ff
-8 161
-8 161
-50 50
ITEM: ATOMS id type xs ys zs
1 2 0.52071 0.52071 0.454722
ITEM: TIMESTEP
600
ITEM: NUMBER OF ATOMS
1
ITEM: BOX BOUNDS ff ff ff
-8 161
-8 161
-50 50
ITEM: ATOMS id type xs ys zs
1 2 0.52071 0.52071 0.455049
ITEM: TIMESTEP
610
ITEM: NUMBER OF ATOMS
1
ITEM: BOX BOUNDS ff ff ff
-8 161
-8 161
-50 50
ITEM: ATOMS id type xs ys zs
1 2 0.52071 0.52071 0.455387
ITEM: TIMESTEP
620
ITEM: NUMBER OF ATOMS
1
ITEM: BOX BOUNDS ff ff ff
-8 161
-8 161
-50 50
ITEM: ATOMS id type xs ys zs
1 2 0.52071 0.52071 0.455736
ITEM: TIMESTEP
630
ITEM: NUMBER OF ATOMS
1
ITEM: BOX BOUNDS ff ff ff
-8 161
-8 161
-50 50
ITEM: ATOMS id type xs ys zs
1 2 0.52071 0.52071 0.456095
ITEM: TIMESTEP
640
ITEM: NUMBER OF ATOMS
1
ITEM: BOX BOUNDS ff ff ff
-8 161
-8 161
-50 50
ITEM: ATOMS id type xs ys zs
1 2 0.52071 0.52071 0.456466
ITEM: TIMESTEP
650
ITEM: NUMBER OF ATOMS
1
ITEM: BOX BOUNDS ff ff ff
-8 161
-8 161
-50 50
ITEM: ATOMS id type xs ys zs
1 2 0.52071 0.52071 0.456848
ITEM: TIMESTEP
660
ITEM: NUMBER OF ATOMS
1
ITEM: BOX BOUNDS ff ff ff
-8 161
-8 161
-50 50
ITEM: ATOMS id type xs ys zs
1 2 0.52071 0.52071 0.457241
ITEM: TIMESTEP
670
ITEM: NUMBER OF ATOMS
1
ITEM: BOX BOUNDS ff ff ff
-8 161
-8 161
-50 50
ITEM: ATOMS id type xs ys zs
1 2 0.52071 0.52071 0.457645
ITEM: TIMESTEP
680
ITEM: NUMBER OF ATOMS
1
ITEM: BOX BOUNDS ff ff ff
-8 161
-8 161
-50 50
ITEM: ATOMS id type xs ys zs
1 2 0.52071 0.52071 0.458059
ITEM: TIMESTEP
690
ITEM: NUMBER OF ATOMS
1
ITEM: BOX BOUNDS ff ff ff
-8 161
-8 161
-50 50
ITEM: ATOMS id type xs ys zs
1 2 0.52071 0.52071 0.458485
ITEM: TIMESTEP
700
ITEM: NUMBER OF ATOMS
1
ITEM: BOX BOUNDS ff ff ff
-8 161
-8 161
-50 50
ITEM: ATOMS id type xs ys zs
1 2 0.520711 0.52071 0.458922
ITEM: TIMESTEP
710
ITEM: NUMBER OF ATOMS
1
ITEM: BOX BOUNDS ff ff ff
-8 161
-8 161
-50 50
ITEM: ATOMS id type xs ys zs
1 2 0.520711 0.52071 0.45937
ITEM: TIMESTEP
720
ITEM: NUMBER OF ATOMS
1
ITEM: BOX BOUNDS ff ff ff
-8 161
-8 161
-50 50
ITEM: ATOMS id type xs ys zs
1 2 0.520711 0.52071 0.459829
ITEM: TIMESTEP
730
ITEM: NUMBER OF ATOMS
1
ITEM: BOX BOUNDS ff ff ff
-8 161
-8 161
-50 50
ITEM: ATOMS id type xs ys zs
1 2 0.520711 0.52071 0.460299
ITEM: TIMESTEP
740
ITEM: NUMBER OF ATOMS
1
ITEM: BOX BOUNDS ff ff ff
-8 161
-8 161
-50 50
ITEM: ATOMS id type xs ys zs
1 2 0.520711 0.52071 0.460779
ITEM: TIMESTEP
750
ITEM: NUMBER OF ATOMS
1
ITEM: BOX BOUNDS ff ff ff
-8 161
-8 161
-50 50
ITEM: ATOMS id type xs ys zs
1 2 0.520711 0.52071 0.461271
ITEM: TIMESTEP
760
ITEM: NUMBER OF ATOMS
1
ITEM: BOX BOUNDS ff ff ff
-8 161
-8 161
-50 50
ITEM: ATOMS id type xs ys zs
1 2 0.520711 0.52071 0.461774
ITEM: TIMESTEP
770
ITEM: NUMBER OF ATOMS
1
ITEM: BOX BOUNDS ff ff ff
-8 161
-8 161
-50 50
ITEM: ATOMS id type xs ys zs
1 2 0.520711 0.52071 0.462288
ITEM: TIMESTEP
780
ITEM: NUMBER OF ATOMS
1
ITEM: BOX BOUNDS ff ff ff
-8 161
-8 161
-50 50
ITEM: ATOMS id type xs ys zs
1 2 0.520711 0.52071 0.462813
ITEM: TIMESTEP
790
ITEM: NUMBER OF ATOMS
1
ITEM: BOX BOUNDS ff ff ff
-8 161
-8 161
-50 50
ITEM: ATOMS id type xs ys zs
1 2 0.520711 0.52071 0.463349
ITEM: TIMESTEP
800
ITEM: NUMBER OF ATOMS
1
ITEM: BOX BOUNDS ff ff ff
-8 161
-8 161
-50 50
ITEM: ATOMS id type xs ys zs
1 2 0.520711 0.52071 0.463896
ITEM: TIMESTEP
810
ITEM: NUMBER OF ATOMS
1
ITEM: BOX BOUNDS ff ff ff
-8 161
-8 161
-50 50
ITEM: ATOMS id type xs ys zs
1 2 0.520711 0.52071 0.464454
ITEM: TIMESTEP
820
ITEM: NUMBER OF ATOMS
1
ITEM: BOX BOUNDS ff ff ff
-8 161
-8 161
-50 50
ITEM: ATOMS id type xs ys zs
1 2 0.520711 0.52071 0.465022
ITEM: TIMESTEP
830
ITEM: NUMBER OF ATOMS
1
ITEM: BOX BOUNDS ff ff ff
-8 161
-8 161
-50 50
ITEM: ATOMS id type xs ys zs
1 2 0.520711 0.52071 0.465602
ITEM: TIMESTEP
840
ITEM: NUMBER OF ATOMS
1
ITEM: BOX BOUNDS ff ff ff
-8 161
-8 161
-50 50
ITEM: ATOMS id type xs ys zs
1 2 0.520711 0.52071 0.466193
ITEM: TIMESTEP
850
ITEM: NUMBER OF ATOMS
1
ITEM: BOX BOUNDS ff ff ff
-8 161
-8 161
-50 50
ITEM: ATOMS id type xs ys zs
1 2 0.520711 0.52071 0.466795
ITEM: TIMESTEP
860
ITEM: NUMBER OF ATOMS
1
ITEM: BOX BOUNDS ff ff ff
-8 161
-8 161
-50 50
ITEM: ATOMS id type xs ys zs
1 2 0.520711 0.52071 0.467408
ITEM: TIMESTEP
870
ITEM: NUMBER OF ATOMS
1
ITEM: BOX BOUNDS ff ff ff
-8 161
-8 161
-50 50
ITEM: ATOMS id type xs ys zs
1 2 0.520711 0.52071 0.468032
ITEM: TIMESTEP
880
ITEM: NUMBER OF ATOMS
1
ITEM: BOX BOUNDS ff ff ff
-8 161
-8 161
-50 50
ITEM: ATOMS id type xs ys zs
1 2 0.520711 0.52071 0.468667
ITEM: TIMESTEP
890
ITEM: NUMBER OF ATOMS
1
ITEM: BOX BOUNDS ff ff ff
-8 161
-8 161
-50 50
ITEM: ATOMS id type xs ys zs
1 2 0.520711 0.52071 0.469313
ITEM: TIMESTEP
900
ITEM: NUMBER OF ATOMS
1
ITEM: BOX BOUNDS ff ff ff
-8 161
-8 161
-50 50
ITEM: ATOMS id type xs ys zs
1 2 0.520711 0.52071 0.46997
ITEM: TIMESTEP
910
ITEM: NUMBER OF ATOMS
1
ITEM: BOX BOUNDS ff ff ff
-8 161
-8 161
-50 50
ITEM: ATOMS id type xs ys zs
1 2 0.520711 0.52071 0.470638
ITEM: TIMESTEP
920
ITEM: NUMBER OF ATOMS
1
ITEM: BOX BOUNDS ff ff ff
-8 161
-8 161
-50 50
ITEM: ATOMS id type xs ys zs
1 2 0.520711 0.52071 0.471318
ITEM: TIMESTEP
930
ITEM: NUMBER OF ATOMS
1
ITEM: BOX BOUNDS ff ff ff
-8 161
-8 161
-50 50
ITEM: ATOMS id type xs ys zs
1 2 0.520711 0.52071 0.472008
ITEM: TIMESTEP
940
ITEM: NUMBER OF ATOMS
1
ITEM: BOX BOUNDS ff ff ff
-8 161
-8 161
-50 50
ITEM: ATOMS id type xs ys zs
1 2 0.520711 0.52071 0.472709
ITEM: TIMESTEP
950
ITEM: NUMBER OF ATOMS
1
ITEM: BOX BOUNDS ff ff ff
-8 161
-8 161
-50 50
ITEM: ATOMS id type xs ys zs
1 2 0.520711 0.52071 0.473421
ITEM: TIMESTEP
960
ITEM: NUMBER OF ATOMS
1
ITEM: BOX BOUNDS ff ff ff
-8 161
-8 161
-50 50
ITEM: ATOMS id type xs ys zs
1 2 0.520711 0.52071 0.474144
ITEM: TIMESTEP
970
ITEM: NUMBER OF ATOMS
1
ITEM: BOX BOUNDS ff ff ff
-8 161
-8 161
-50 50
ITEM: ATOMS id type xs ys zs
1 2 0.520711 0.52071 0.474878
ITEM: TIMESTEP
980
ITEM: NUMBER OF ATOMS
1
ITEM: BOX BOUNDS ff ff ff
-8 161
-8 161
-50 50
ITEM: ATOMS id type xs ys zs
1 2 0.520711 0.52071 0.475624
ITEM: TIMESTEP
990
ITEM: NUMBER OF ATOMS
1
ITEM: BOX BOUNDS ff ff ff
-8 161
-8 161
-50 50
ITEM: ATOMS id type xs ys zs
1 2 0.520711 0.52071 0.47638
ITEM: TIMESTEP
1000
ITEM: NUMBER OF ATOMS
1
ITEM: BOX BOUNDS ff ff ff
-8 161
-8 161
-50 50
ITEM: ATOMS id type xs ys zs
1 2 0.520711 0.52071 0.477147
ITEM: TIMESTEP
1010
ITEM: NUMBER OF ATOMS
1
ITEM: BOX BOUNDS ff ff ff
-8 161
-8 161
-50 50
ITEM: ATOMS id type xs ys zs
1 2 0.520711 0.52071 0.477925
ITEM: TIMESTEP
1020
ITEM: NUMBER OF ATOMS
1
ITEM: BOX BOUNDS ff ff ff
-8 161
-8 161
-50 50
ITEM: ATOMS id type xs ys zs
1 2 0.520711 0.52071 0.478714
ITEM: TIMESTEP
1030
ITEM: NUMBER OF ATOMS
1
ITEM: BOX BOUNDS ff ff ff
-8 161
-8 161
-50 50
ITEM: ATOMS id type xs ys zs
1 2 0.520712 0.52071 0.479514
ITEM: TIMESTEP
1040
ITEM: NUMBER OF ATOMS
1
ITEM: BOX BOUNDS ff ff ff
-8 161
-8 161
-50 50
ITEM: ATOMS id type xs ys zs
1 2 0.520712 0.52071 0.480324
ITEM: TIMESTEP
1050
ITEM: NUMBER OF ATOMS
1
ITEM: BOX BOUNDS ff ff ff
-8 161
-8 161
-50 50
ITEM: ATOMS id type xs ys zs
1 2 0.520712 0.52071 0.481146
ITEM: TIMESTEP
1060
ITEM: NUMBER OF ATOMS
1
ITEM: BOX BOUNDS ff ff ff
-8 161
-8 161
-50 50
ITEM: ATOMS id type xs ys zs
1 2 0.520712 0.52071 0.481978
ITEM: TIMESTEP
1070
ITEM: NUMBER OF ATOMS
1
ITEM: BOX BOUNDS ff ff ff
-8 161
-8 161
-50 50
ITEM: ATOMS id type xs ys zs
1 2 0.520712 0.52071 0.48282
ITEM: TIMESTEP
1080
ITEM: NUMBER OF ATOMS
1
ITEM: BOX BOUNDS ff ff ff
-8 161
-8 161
-50 50
ITEM: ATOMS id type xs ys zs
1 2 0.520712 0.52071 0.483672
ITEM: TIMESTEP
1090
ITEM: NUMBER OF ATOMS
1
ITEM: BOX BOUNDS ff ff ff
-8 161
-8 161
-50 50
ITEM: ATOMS id type xs ys zs
1 2 0.520712 0.520711 0.484534
ITEM: TIMESTEP
1100
ITEM: NUMBER OF ATOMS
1
ITEM: BOX BOUNDS ff ff ff
-8 161
-8 161
-50 50
ITEM: ATOMS id type xs ys zs
1 2 0.520712 0.520711 0.485406
ITEM: TIMESTEP
1110
ITEM: NUMBER OF ATOMS
1
ITEM: BOX BOUNDS ff ff ff
-8 161
-8 161
-50 50
ITEM: ATOMS id type xs ys zs
1 2 0.520712 0.520711 0.486287
ITEM: TIMESTEP
1120
ITEM: NUMBER OF ATOMS
1
ITEM: BOX BOUNDS ff ff ff
-8 161
-8 161
-50 50
ITEM: ATOMS id type xs ys zs
1 2 0.520711 0.520711 0.487176
ITEM: TIMESTEP
1130
ITEM: NUMBER OF ATOMS
1
ITEM: BOX BOUNDS ff ff ff
-8 161
-8 161
-50 50
ITEM: ATOMS id type xs ys zs
1 2 0.520711 0.520711 0.488073
ITEM: TIMESTEP
1140
ITEM: NUMBER OF ATOMS
1
ITEM: BOX BOUNDS ff ff ff
-8 161
-8 161
-50 50
ITEM: ATOMS id type xs ys zs
1 2 0.520711 0.520712 0.488976
ITEM: TIMESTEP
1150
ITEM: NUMBER OF ATOMS
1
ITEM: BOX BOUNDS ff ff ff
-8 161
-8 161
-50 50
ITEM: ATOMS id type xs ys zs
1 2 0.520711 0.520712 0.489886
ITEM: TIMESTEP
1160
ITEM: NUMBER OF ATOMS
1
ITEM: BOX BOUNDS ff ff ff
-8 161
-8 161
-50 50
ITEM: ATOMS id type xs ys zs
1 2 0.52071 0.520713 0.490798
ITEM: TIMESTEP
1170
ITEM: NUMBER OF ATOMS
1
ITEM: BOX BOUNDS ff ff ff
-8 161
-8 161
-50 50
ITEM: ATOMS id type xs ys zs
1 2 0.520709 0.520714 0.491709
ITEM: TIMESTEP
1180
ITEM: NUMBER OF ATOMS
1
ITEM: BOX BOUNDS ff ff ff
-8 161
-8 161
-50 50
ITEM: ATOMS id type xs ys zs
1 2 0.520708 0.520715 0.492616
ITEM: TIMESTEP
1190
ITEM: NUMBER OF ATOMS
1
ITEM: BOX BOUNDS ff ff ff
-8 161
-8 161
-50 50
ITEM: ATOMS id type xs ys zs
1 2 0.520707 0.520718 0.493512
ITEM: TIMESTEP
1200
ITEM: NUMBER OF ATOMS
1
ITEM: BOX BOUNDS ff ff ff
-8 161
-8 161
-50 50
ITEM: ATOMS id type xs ys zs
1 2 0.520706 0.520721 0.494392
