ITEM: TIMESTEP
0
ITEM: NUMBER OF ATOMS
3187
ITEM: BOX BOUNDS ff ff ff
-90 90
-90 90
-90 90
ITEM: ATOMS element x y z 
C 0 0 0 
C -1.22802 0.709 0 
C -1.22802 2.127 0 
C 0 2.836 0 
C 2.45605 0 0 
C 1.22802 0.709 0 
C 1.22802 2.127 0 
C 2.45605 2.836 0 
C 4.9121 0 0 
C 3.68407 0.709 0 
C 3.68407 2.127 0 
C 4.9121 2.836 0 
C 7.36814 0 0 
C 6.14012 0.709 0 
C 6.14012 2.127 0 
C 7.36814 2.836 0 
C 9.82419 0 0 
C 8.59617 0.709 0 
C 8.59617 2.127 0 
C 9.82419 2.836 0 
C 12.2802 0 0 
C 11.0522 0.709 0 
C 11.0522 2.127 0 
C 12.2802 2.836 0 
C 14.7363 0 0 
C 13.5083 0.709 0 
C 13.5083 2.127 0 
C 14.7363 2.836 0 
C 17.1923 0 0 
C 15.9643 0.709 0 
C 15.9643 2.127 0 
C 17.1923 2.836 0 
C 19.6484 0 0 
C 18.4204 0.709 0 
C 18.4204 2.127 0 
C 19.6484 2.836 0 
C 22.1044 0 0 
C 20.8764 0.709 0 
C 20.8764 2.127 0 
C 22.1044 2.836 0 
C 24.5605 0 0 
C 23.3325 0.709 0 
C 23.3325 2.127 0 
C 24.5605 2.836 0 
C 27.0165 0 0 
C 25.7885 0.709 0 
C 25.7885 2.127 0 
C 27.0165 2.836 0 
C 29.4726 0 0 
C 28.2446 0.709 0 
C 28.2446 2.127 0 
C 29.4726 2.836 0 
C 31.9286 0 0 
C 30.7006 0.709 0 
C 30.7006 2.127 0 
C 31.9286 2.836 0 
C 34.3847 0 0 
C 33.1566 0.709 0 
C 33.1566 2.127 0 
C 34.3847 2.836 0 
C 36.8407 0 0 
C 35.6127 0.709 0 
C 35.6127 2.127 0 
C 36.8407 2.836 0 
C 39.2968 0 0 
C 38.0687 0.709 0 
C 38.0687 2.127 0 
C 39.2968 2.836 0 
C 41.7528 0 0 
C 40.5248 0.709 0 
C 40.5248 2.127 0 
C 41.7528 2.836 0 
C 44.2089 0 0 
C 42.9808 0.709 0 
C 42.9808 2.127 0 
C 44.2089 2.836 0 
C 46.6649 0 0 
C 45.4369 0.709 0 
C 45.4369 2.127 0 
C 46.6649 2.836 0 
C 49.121 0 0 
C 47.8929 0.709 0 
C 47.8929 2.127 0 
C 49.121 2.836 0 
C 51.577 0 0 
C 50.349 0.709 0 
C 50.349 2.127 0 
C 51.577 2.836 0 
C 54.0331 0 0 
C 52.805 0.709 0 
C 52.805 2.127 0 
C 54.0331 2.836 0 
C 56.4891 0 0 
C 55.2611 0.709 0 
C 55.2611 2.127 0 
C 56.4891 2.836 0 
C 58.9452 0 0 
C 57.7171 0.709 0 
C 57.7171 2.127 0 
C 58.9452 2.836 0 
C 61.4012 0 0 
C 60.1732 0.709 0 
C 60.1732 2.127 0 
C 61.4012 2.836 0 
C 63.8573 0 0 
C 62.6292 0.709 0 
C 62.6292 2.127 0 
C 63.8573 2.836 0 
C 66.3133 0 0 
C 65.0853 0.709 0 
C 65.0853 2.127 0 
C 66.3133 2.836 0 
C 68.7693 0 0 
C 67.5413 0.709 0 
C 67.5413 2.127 0 
C 68.7693 2.836 0 
C 71.2254 0 0 
C 69.9974 0.709 0 
C 69.9974 2.127 0 
C 71.2254 2.836 0 
C 73.6814 0 0 
C 72.4534 0.709 0 
C 72.4534 2.127 0 
C 73.6814 2.836 0 
C 76.1375 0 0 
C 74.9095 0.709 0 
C 74.9095 2.127 0 
C 76.1375 2.836 0 
C 78.5935 0 0 
C 77.3655 0.709 0 
C 77.3655 2.127 0 
C 78.5935 2.836 0 
C 81.0496 0 0 
C 79.8216 0.709 0 
C 79.8216 2.127 0 
C 81.0496 2.836 0 
C 83.5056 0 0 
C 82.2776 0.709 0 
C 82.2776 2.127 0 
C 83.5056 2.836 0 
C 85.9617 0 0 
C 84.7337 0.709 0 
C 84.7337 2.127 0 
C 85.9617 2.836 0 
C 88.4177 0 0 
C 87.1897 0.709 0 
C 87.1897 2.127 0 
C 88.4177 2.836 0 
C 89.6458 0.709 0 
C 89.6458 2.127 0 
C 0 4.254 0 
C -1.22802 4.963 0 
C -1.22802 6.381 0 
C 0 7.09 0 
C 2.45605 4.254 0 
C 1.22802 4.963 0 
C 1.22802 6.381 0 
C 2.45605 7.09 0 
C 4.9121 4.254 0 
C 3.68407 4.963 0 
C 3.68407 6.381 0 
C 4.9121 7.09 0 
C 7.36814 4.254 0 
C 6.14012 4.963 0 
C 6.14012 6.381 0 
C 7.36814 7.09 0 
C 9.82419 4.254 0 
C 8.59617 4.963 0 
C 8.59617 6.381 0 
C 9.82419 7.09 0 
C 12.2802 4.254 0 
C 11.0522 4.963 0 
C 11.0522 6.381 0 
C 12.2802 7.09 0 
C 14.7363 4.254 0 
C 13.5083 4.963 0 
C 13.5083 6.381 0 
C 14.7363 7.09 0 
C 17.1923 4.254 0 
C 15.9643 4.963 0 
C 15.9643 6.381 0 
C 17.1923 7.09 0 
C 19.6484 4.254 0 
C 18.4204 4.963 0 
C 18.4204 6.381 0 
C 19.6484 7.09 0 
C 22.1044 4.254 0 
C 20.8764 4.963 0 
C 20.8764 6.381 0 
C 22.1044 7.09 0 
C 24.5605 4.254 0 
C 23.3325 4.963 0 
C 23.3325 6.381 0 
C 24.5605 7.09 0 
C 27.0165 4.254 0 
C 25.7885 4.963 0 
C 25.7885 6.381 0 
C 27.0165 7.09 0 
C 29.4726 4.254 0 
C 28.2446 4.963 0 
C 28.2446 6.381 0 
C 29.4726 7.09 0 
C 31.9286 4.254 0 
C 30.7006 4.963 0 
C 30.7006 6.381 0 
C 31.9286 7.09 0 
C 34.3847 4.254 0 
C 33.1566 4.963 0 
C 33.1566 6.381 0 
C 34.3847 7.09 0 
C 36.8407 4.254 0 
C 35.6127 4.963 0 
C 35.6127 6.381 0 
C 36.8407 7.09 0 
C 39.2968 4.254 0 
C 38.0687 4.963 0 
C 38.0687 6.381 0 
C 39.2968 7.09 0 
C 41.7528 4.254 0 
C 40.5248 4.963 0 
C 40.5248 6.381 0 
C 41.7528 7.09 0 
C 44.2089 4.254 0 
C 42.9808 4.963 0 
C 42.9808 6.381 0 
C 44.2089 7.09 0 
C 46.6649 4.254 0 
C 45.4369 4.963 0 
C 45.4369 6.381 0 
C 46.6649 7.09 0 
C 49.121 4.254 0 
C 47.8929 4.963 0 
C 47.8929 6.381 0 
C 49.121 7.09 0 
C 51.577 4.254 0 
C 50.349 4.963 0 
C 50.349 6.381 0 
C 51.577 7.09 0 
C 54.0331 4.254 0 
C 52.805 4.963 0 
C 52.805 6.381 0 
C 54.0331 7.09 0 
C 56.4891 4.254 0 
C 55.2611 4.963 0 
C 55.2611 6.381 0 
C 56.4891 7.09 0 
C 58.9452 4.254 0 
C 57.7171 4.963 0 
C 57.7171 6.381 0 
C 58.9452 7.09 0 
C 61.4012 4.254 0 
C 60.1732 4.963 0 
C 60.1732 6.381 0 
C 61.4012 7.09 0 
C 63.8573 4.254 0 
C 62.6292 4.963 0 
C 62.6292 6.381 0 
C 63.8573 7.09 0 
C 66.3133 4.254 0 
C 65.0853 4.963 0 
C 65.0853 6.381 0 
C 66.3133 7.09 0 
C 68.7693 4.254 0 
C 67.5413 4.963 0 
C 67.5413 6.381 0 
C 68.7693 7.09 0 
C 71.2254 4.254 0 
C 69.9974 4.963 0 
C 69.9974 6.381 0 
C 71.2254 7.09 0 
C 73.6814 4.254 0 
C 72.4534 4.963 0 
C 72.4534 6.381 0 
C 73.6814 7.09 0 
C 76.1375 4.254 0 
C 74.9095 4.963 0 
C 74.9095 6.381 0 
C 76.1375 7.09 0 
C 78.5935 4.254 0 
C 77.3655 4.963 0 
C 77.3655 6.381 0 
C 78.5935 7.09 0 
C 81.0496 4.254 0 
C 79.8216 4.963 0 
C 79.8216 6.381 0 
C 81.0496 7.09 0 
C 83.5056 4.254 0 
C 82.2776 4.963 0 
C 82.2776 6.381 0 
C 83.5056 7.09 0 
C 85.9617 4.254 0 
C 84.7337 4.963 0 
C 84.7337 6.381 0 
C 85.9617 7.09 0 
C 88.4177 4.254 0 
C 87.1897 4.963 0 
C 87.1897 6.381 0 
C 88.4177 7.09 0 
C 89.6458 4.963 0 
C 89.6458 6.381 0 
C 0 8.508 0 
C -1.22802 9.217 0 
C -1.22802 10.635 0 
C 0 11.344 0 
C 2.45605 8.508 0 
C 1.22802 9.217 0 
C 1.22802 10.635 0 
C 2.45605 11.344 0 
C 4.9121 8.508 0 
C 3.68407 9.217 0 
C 3.68407 10.635 0 
C 4.9121 11.344 0 
C 7.36814 8.508 0 
C 6.14012 9.217 0 
C 6.14012 10.635 0 
C 7.36814 11.344 0 
C 9.82419 8.508 0 
C 8.59617 9.217 0 
C 8.59617 10.635 0 
C 9.82419 11.344 0 
C 12.2802 8.508 0 
C 11.0522 9.217 0 
C 11.0522 10.635 0 
C 12.2802 11.344 0 
C 14.7363 8.508 0 
C 13.5083 9.217 0 
C 13.5083 10.635 0 
C 14.7363 11.344 0 
C 17.1923 8.508 0 
C 15.9643 9.217 0 
C 15.9643 10.635 0 
C 17.1923 11.344 0 
C 19.6484 8.508 0 
C 18.4204 9.217 0 
C 18.4204 10.635 0 
C 19.6484 11.344 0 
C 22.1044 8.508 0 
C 20.8764 9.217 0 
C 20.8764 10.635 0 
C 22.1044 11.344 0 
C 24.5605 8.508 0 
C 23.3325 9.217 0 
C 23.3325 10.635 0 
C 24.5605 11.344 0 
C 27.0165 8.508 0 
C 25.7885 9.217 0 
C 25.7885 10.635 0 
C 27.0165 11.344 0 
C 29.4726 8.508 0 
C 28.2446 9.217 0 
C 28.2446 10.635 0 
C 29.4726 11.344 0 
C 31.9286 8.508 0 
C 30.7006 9.217 0 
C 30.7006 10.635 0 
C 31.9286 11.344 0 
C 34.3847 8.508 0 
C 33.1566 9.217 0 
C 33.1566 10.635 0 
C 34.3847 11.344 0 
C 36.8407 8.508 0 
C 35.6127 9.217 0 
C 35.6127 10.635 0 
C 36.8407 11.344 0 
C 39.2968 8.508 0 
C 38.0687 9.217 0 
C 38.0687 10.635 0 
C 39.2968 11.344 0 
C 41.7528 8.508 0 
C 40.5248 9.217 0 
C 40.5248 10.635 0 
C 41.7528 11.344 0 
C 44.2089 8.508 0 
C 42.9808 9.217 0 
C 42.9808 10.635 0 
C 44.2089 11.344 0 
C 46.6649 8.508 0 
C 45.4369 9.217 0 
C 45.4369 10.635 0 
C 46.6649 11.344 0 
C 49.121 8.508 0 
C 47.8929 9.217 0 
C 47.8929 10.635 0 
C 49.121 11.344 0 
C 51.577 8.508 0 
C 50.349 9.217 0 
C 50.349 10.635 0 
C 51.577 11.344 0 
C 54.0331 8.508 0 
C 52.805 9.217 0 
C 52.805 10.635 0 
C 54.0331 11.344 0 
C 56.4891 8.508 0 
C 55.2611 9.217 0 
C 55.2611 10.635 0 
C 56.4891 11.344 0 
C 58.9452 8.508 0 
C 57.7171 9.217 0 
C 57.7171 10.635 0 
C 58.9452 11.344 0 
C 61.4012 8.508 0 
C 60.1732 9.217 0 
C 60.1732 10.635 0 
C 61.4012 11.344 0 
C 63.8573 8.508 0 
C 62.6292 9.217 0 
C 62.6292 10.635 0 
C 63.8573 11.344 0 
C 66.3133 8.508 0 
C 65.0853 9.217 0 
C 65.0853 10.635 0 
C 66.3133 11.344 0 
C 68.7693 8.508 0 
C 67.5413 9.217 0 
C 67.5413 10.635 0 
C 68.7693 11.344 0 
C 71.2254 8.508 0 
C 69.9974 9.217 0 
C 69.9974 10.635 0 
C 71.2254 11.344 0 
C 73.6814 8.508 0 
C 72.4534 9.217 0 
C 72.4534 10.635 0 
C 73.6814 11.344 0 
C 76.1375 8.508 0 
C 74.9095 9.217 0 
C 74.9095 10.635 0 
C 76.1375 11.344 0 
C 78.5935 8.508 0 
C 77.3655 9.217 0 
C 77.3655 10.635 0 
C 78.5935 11.344 0 
C 81.0496 8.508 0 
C 79.8216 9.217 0 
C 79.8216 10.635 0 
C 81.0496 11.344 0 
C 83.5056 8.508 0 
C 82.2776 9.217 0 
C 82.2776 10.635 0 
C 83.5056 11.344 0 
C 85.9617 8.508 0 
C 84.7337 9.217 0 
C 84.7337 10.635 0 
C 85.9617 11.344 0 
C 88.4177 8.508 0 
C 87.1897 9.217 0 
C 87.1897 10.635 0 
C 88.4177 11.344 0 
C 89.6458 9.217 0 
C 89.6458 10.635 0 
C 0 12.762 0 
C -1.22802 13.471 0 
C -1.22802 14.889 0 
C 0 15.598 0 
C 2.45605 12.762 0 
C 1.22802 13.471 0 
C 1.22802 14.889 0 
C 2.45605 15.598 0 
C 4.9121 12.762 0 
C 3.68407 13.471 0 
C 3.68407 14.889 0 
C 4.9121 15.598 0 
C 7.36814 12.762 0 
C 6.14012 13.471 0 
C 6.14012 14.889 0 
C 7.36814 15.598 0 
C 9.82419 12.762 0 
C 8.59617 13.471 0 
C 8.59617 14.889 0 
C 9.82419 15.598 0 
C 12.2802 12.762 0 
C 11.0522 13.471 0 
C 11.0522 14.889 0 
C 12.2802 15.598 0 
C 14.7363 12.762 0 
C 13.5083 13.471 0 
C 13.5083 14.889 0 
C 14.7363 15.598 0 
C 17.1923 12.762 0 
C 15.9643 13.471 0 
C 15.9643 14.889 0 
C 17.1923 15.598 0 
C 19.6484 12.762 0 
C 18.4204 13.471 0 
C 18.4204 14.889 0 
C 19.6484 15.598 0 
C 22.1044 12.762 0 
C 20.8764 13.471 0 
C 20.8764 14.889 0 
C 22.1044 15.598 0 
C 24.5605 12.762 0 
C 23.3325 13.471 0 
C 23.3325 14.889 0 
C 24.5605 15.598 0 
C 27.0165 12.762 0 
C 25.7885 13.471 0 
C 25.7885 14.889 0 
C 27.0165 15.598 0 
C 29.4726 12.762 0 
C 28.2446 13.471 0 
C 28.2446 14.889 0 
C 29.4726 15.598 0 
C 31.9286 12.762 0 
C 30.7006 13.471 0 
C 30.7006 14.889 0 
C 31.9286 15.598 0 
C 34.3847 12.762 0 
C 33.1566 13.471 0 
C 33.1566 14.889 0 
C 34.3847 15.598 0 
C 36.8407 12.762 0 
C 35.6127 13.471 0 
C 35.6127 14.889 0 
C 36.8407 15.598 0 
C 39.2968 12.762 0 
C 38.0687 13.471 0 
C 38.0687 14.889 0 
C 39.2968 15.598 0 
C 41.7528 12.762 0 
C 40.5248 13.471 0 
C 40.5248 14.889 0 
C 41.7528 15.598 0 
C 44.2089 12.762 0 
C 42.9808 13.471 0 
C 42.9808 14.889 0 
C 44.2089 15.598 0 
C 46.6649 12.762 0 
C 45.4369 13.471 0 
C 45.4369 14.889 0 
C 46.6649 15.598 0 
C 49.121 12.762 0 
C 47.8929 13.471 0 
C 47.8929 14.889 0 
C 49.121 15.598 0 
C 51.577 12.762 0 
C 50.349 13.471 0 
C 50.349 14.889 0 
C 51.577 15.598 0 
C 54.0331 12.762 0 
C 52.805 13.471 0 
C 52.805 14.889 0 
C 54.0331 15.598 0 
C 56.4891 12.762 0 
C 55.2611 13.471 0 
C 55.2611 14.889 0 
C 56.4891 15.598 0 
C 58.9452 12.762 0 
C 57.7171 13.471 0 
C 57.7171 14.889 0 
C 58.9452 15.598 0 
C 61.4012 12.762 0 
C 60.1732 13.471 0 
C 60.1732 14.889 0 
C 61.4012 15.598 0 
C 63.8573 12.762 0 
C 62.6292 13.471 0 
C 62.6292 14.889 0 
C 63.8573 15.598 0 
C 66.3133 12.762 0 
C 65.0853 13.471 0 
C 65.0853 14.889 0 
C 66.3133 15.598 0 
C 68.7693 12.762 0 
C 67.5413 13.471 0 
C 67.5413 14.889 0 
C 68.7693 15.598 0 
C 71.2254 12.762 0 
C 69.9974 13.471 0 
C 69.9974 14.889 0 
C 71.2254 15.598 0 
C 73.6814 12.762 0 
C 72.4534 13.471 0 
C 72.4534 14.889 0 
C 73.6814 15.598 0 
C 76.1375 12.762 0 
C 74.9095 13.471 0 
C 74.9095 14.889 0 
C 76.1375 15.598 0 
C 78.5935 12.762 0 
C 77.3655 13.471 0 
C 77.3655 14.889 0 
C 78.5935 15.598 0 
C 81.0496 12.762 0 
C 79.8216 13.471 0 
C 79.8216 14.889 0 
C 81.0496 15.598 0 
C 83.5056 12.762 0 
C 82.2776 13.471 0 
C 82.2776 14.889 0 
C 83.5056 15.598 0 
C 85.9617 12.762 0 
C 84.7337 13.471 0 
C 84.7337 14.889 0 
C 85.9617 15.598 0 
C 88.4177 12.762 0 
C 87.1897 13.471 0 
C 87.1897 14.889 0 
C 88.4177 15.598 0 
C 89.6458 13.471 0 
C 89.6458 14.889 0 
C 0 17.016 0 
C -1.22802 17.725 0 
C -1.22802 19.143 0 
C 0 19.852 0 
C 2.45605 17.016 0 
C 1.22802 17.725 0 
C 1.22802 19.143 0 
C 2.45605 19.852 0 
C 4.9121 17.016 0 
C 3.68407 17.725 0 
C 3.68407 19.143 0 
C 4.9121 19.852 0 
C 7.36814 17.016 0 
C 6.14012 17.725 0 
C 6.14012 19.143 0 
C 7.36814 19.852 0 
C 9.82419 17.016 0 
C 8.59617 17.725 0 
C 8.59617 19.143 0 
C 9.82419 19.852 0 
C 12.2802 17.016 0 
C 11.0522 17.725 0 
C 11.0522 19.143 0 
C 12.2802 19.852 0 
C 14.7363 17.016 0 
C 13.5083 17.725 0 
C 13.5083 19.143 0 
C 14.7363 19.852 0 
C 17.1923 17.016 0 
C 15.9643 17.725 0 
C 15.9643 19.143 0 
C 17.1923 19.852 0 
C 19.6484 17.016 0 
C 18.4204 17.725 0 
C 18.4204 19.143 0 
C 19.6484 19.852 0 
C 22.1044 17.016 0 
C 20.8764 17.725 0 
C 20.8764 19.143 0 
C 22.1044 19.852 0 
C 24.5605 17.016 0 
C 23.3325 17.725 0 
C 23.3325 19.143 0 
C 24.5605 19.852 0 
C 27.0165 17.016 0 
C 25.7885 17.725 0 
C 25.7885 19.143 0 
C 27.0165 19.852 0 
C 29.4726 17.016 0 
C 28.2446 17.725 0 
C 28.2446 19.143 0 
C 29.4726 19.852 0 
C 31.9286 17.016 0 
C 30.7006 17.725 0 
C 30.7006 19.143 0 
C 31.9286 19.852 0 
C 34.3847 17.016 0 
C 33.1566 17.725 0 
C 33.1566 19.143 0 
C 34.3847 19.852 0 
C 36.8407 17.016 0 
C 35.6127 17.725 0 
C 35.6127 19.143 0 
C 36.8407 19.852 0 
C 39.2968 17.016 0 
C 38.0687 17.725 0 
C 38.0687 19.143 0 
C 39.2968 19.852 0 
C 41.7528 17.016 0 
C 40.5248 17.725 0 
C 40.5248 19.143 0 
C 41.7528 19.852 0 
C 44.2089 17.016 0 
C 42.9808 17.725 0 
C 42.9808 19.143 0 
C 44.2089 19.852 0 
C 46.6649 17.016 0 
C 45.4369 17.725 0 
C 45.4369 19.143 0 
C 46.6649 19.852 0 
C 49.121 17.016 0 
C 47.8929 17.725 0 
C 47.8929 19.143 0 
C 49.121 19.852 0 
C 51.577 17.016 0 
C 50.349 17.725 0 
C 50.349 19.143 0 
C 51.577 19.852 0 
C 54.0331 17.016 0 
C 52.805 17.725 0 
C 52.805 19.143 0 
C 54.0331 19.852 0 
C 56.4891 17.016 0 
C 55.2611 17.725 0 
C 55.2611 19.143 0 
C 56.4891 19.852 0 
C 58.9452 17.016 0 
C 57.7171 17.725 0 
C 57.7171 19.143 0 
C 58.9452 19.852 0 
C 61.4012 17.016 0 
C 60.1732 17.725 0 
C 60.1732 19.143 0 
C 61.4012 19.852 0 
C 63.8573 17.016 0 
C 62.6292 17.725 0 
C 62.6292 19.143 0 
C 63.8573 19.852 0 
C 66.3133 17.016 0 
C 65.0853 17.725 0 
C 65.0853 19.143 0 
C 66.3133 19.852 0 
C 68.7693 17.016 0 
C 67.5413 17.725 0 
C 67.5413 19.143 0 
C 68.7693 19.852 0 
C 71.2254 17.016 0 
C 69.9974 17.725 0 
C 69.9974 19.143 0 
C 71.2254 19.852 0 
C 73.6814 17.016 0 
C 72.4534 17.725 0 
C 72.4534 19.143 0 
C 73.6814 19.852 0 
C 76.1375 17.016 0 
C 74.9095 17.725 0 
C 74.9095 19.143 0 
C 76.1375 19.852 0 
C 78.5935 17.016 0 
C 77.3655 17.725 0 
C 77.3655 19.143 0 
C 78.5935 19.852 0 
C 81.0496 17.016 0 
C 79.8216 17.725 0 
C 79.8216 19.143 0 
C 81.0496 19.852 0 
C 83.5056 17.016 0 
C 82.2776 17.725 0 
C 82.2776 19.143 0 
C 83.5056 19.852 0 
C 85.9617 17.016 0 
C 84.7337 17.725 0 
C 84.7337 19.143 0 
C 85.9617 19.852 0 
C 88.4177 17.016 0 
C 87.1897 17.725 0 
C 87.1897 19.143 0 
C 88.4177 19.852 0 
C 89.6458 17.725 0 
C 89.6458 19.143 0 
C 0 21.27 0 
C -1.22802 21.979 0 
C -1.22802 23.397 0 
C 0 24.106 0 
C 2.45605 21.27 0 
C 1.22802 21.979 0 
C 1.22802 23.397 0 
C 2.45605 24.106 0 
C 4.9121 21.27 0 
C 3.68407 21.979 0 
C 3.68407 23.397 0 
C 4.9121 24.106 0 
C 7.36814 21.27 0 
C 6.14012 21.979 0 
C 6.14012 23.397 0 
C 7.36814 24.106 0 
C 9.82419 21.27 0 
C 8.59617 21.979 0 
C 8.59617 23.397 0 
C 9.82419 24.106 0 
C 12.2802 21.27 0 
C 11.0522 21.979 0 
C 11.0522 23.397 0 
C 12.2802 24.106 0 
C 14.7363 21.27 0 
C 13.5083 21.979 0 
C 13.5083 23.397 0 
C 14.7363 24.106 0 
C 17.1923 21.27 0 
C 15.9643 21.979 0 
C 15.9643 23.397 0 
C 17.1923 24.106 0 
C 19.6484 21.27 0 
C 18.4204 21.979 0 
C 18.4204 23.397 0 
C 19.6484 24.106 0 
C 22.1044 21.27 0 
C 20.8764 21.979 0 
C 20.8764 23.397 0 
C 22.1044 24.106 0 
C 24.5605 21.27 0 
C 23.3325 21.979 0 
C 23.3325 23.397 0 
C 24.5605 24.106 0 
C 27.0165 21.27 0 
C 25.7885 21.979 0 
C 25.7885 23.397 0 
C 27.0165 24.106 0 
C 29.4726 21.27 0 
C 28.2446 21.979 0 
C 28.2446 23.397 0 
C 29.4726 24.106 0 
C 31.9286 21.27 0 
C 30.7006 21.979 0 
C 30.7006 23.397 0 
C 31.9286 24.106 0 
C 34.3847 21.27 0 
C 33.1566 21.979 0 
C 33.1566 23.397 0 
C 34.3847 24.106 0 
C 36.8407 21.27 0 
C 35.6127 21.979 0 
C 35.6127 23.397 0 
C 36.8407 24.106 0 
C 39.2968 21.27 0 
C 38.0687 21.979 0 
C 38.0687 23.397 0 
C 39.2968 24.106 0 
C 41.7528 21.27 0 
C 40.5248 21.979 0 
C 40.5248 23.397 0 
C 41.7528 24.106 0 
C 44.2089 21.27 0 
C 42.9808 21.979 0 
C 42.9808 23.397 0 
C 44.2089 24.106 0 
C 46.6649 21.27 0 
C 45.4369 21.979 0 
C 45.4369 23.397 0 
C 46.6649 24.106 0 
C 49.121 21.27 0 
C 47.8929 21.979 0 
C 47.8929 23.397 0 
C 49.121 24.106 0 
C 51.577 21.27 0 
C 50.349 21.979 0 
C 50.349 23.397 0 
C 51.577 24.106 0 
C 54.0331 21.27 0 
C 52.805 21.979 0 
C 52.805 23.397 0 
C 54.0331 24.106 0 
C 56.4891 21.27 0 
C 55.2611 21.979 0 
C 55.2611 23.397 0 
C 56.4891 24.106 0 
C 58.9452 21.27 0 
C 57.7171 21.979 0 
C 57.7171 23.397 0 
C 58.9452 24.106 0 
C 61.4012 21.27 0 
C 60.1732 21.979 0 
C 60.1732 23.397 0 
C 61.4012 24.106 0 
C 63.8573 21.27 0 
C 62.6292 21.979 0 
C 62.6292 23.397 0 
C 63.8573 24.106 0 
C 66.3133 21.27 0 
C 65.0853 21.979 0 
C 65.0853 23.397 0 
C 66.3133 24.106 0 
C 68.7693 21.27 0 
C 67.5413 21.979 0 
C 67.5413 23.397 0 
C 68.7693 24.106 0 
C 71.2254 21.27 0 
C 69.9974 21.979 0 
C 69.9974 23.397 0 
C 71.2254 24.106 0 
C 73.6814 21.27 0 
C 72.4534 21.979 0 
C 72.4534 23.397 0 
C 73.6814 24.106 0 
C 76.1375 21.27 0 
C 74.9095 21.979 0 
C 74.9095 23.397 0 
C 76.1375 24.106 0 
C 78.5935 21.27 0 
C 77.3655 21.979 0 
C 77.3655 23.397 0 
C 78.5935 24.106 0 
C 81.0496 21.27 0 
C 79.8216 21.979 0 
C 79.8216 23.397 0 
C 81.0496 24.106 0 
C 83.5056 21.27 0 
C 82.2776 21.979 0 
C 82.2776 23.397 0 
C 83.5056 24.106 0 
C 85.9617 21.27 0 
C 84.7337 21.979 0 
C 84.7337 23.397 0 
C 85.9617 24.106 0 
C 88.4177 21.27 0 
C 87.1897 21.979 0 
C 87.1897 23.397 0 
C 88.4177 24.106 0 
C 89.6458 21.979 0 
C 89.6458 23.397 0 
C 0 25.524 0 
C -1.22802 26.233 0 
C -1.22802 27.651 0 
C 0 28.36 0 
C 2.45605 25.524 0 
C 1.22802 26.233 0 
C 1.22802 27.651 0 
C 2.45605 28.36 0 
C 4.9121 25.524 0 
C 3.68407 26.233 0 
C 3.68407 27.651 0 
C 4.9121 28.36 0 
C 7.36814 25.524 0 
C 6.14012 26.233 0 
C 6.14012 27.651 0 
C 7.36814 28.36 0 
C 9.82419 25.524 0 
C 8.59617 26.233 0 
C 8.59617 27.651 0 
C 9.82419 28.36 0 
C 12.2802 25.524 0 
C 11.0522 26.233 0 
C 11.0522 27.651 0 
C 12.2802 28.36 0 
C 14.7363 25.524 0 
C 13.5083 26.233 0 
C 13.5083 27.651 0 
C 14.7363 28.36 0 
C 17.1923 25.524 0 
C 15.9643 26.233 0 
C 15.9643 27.651 0 
C 17.1923 28.36 0 
C 19.6484 25.524 0 
C 18.4204 26.233 0 
C 18.4204 27.651 0 
C 19.6484 28.36 0 
C 22.1044 25.524 0 
C 20.8764 26.233 0 
C 20.8764 27.651 0 
C 22.1044 28.36 0 
C 24.5605 25.524 0 
C 23.3325 26.233 0 
C 23.3325 27.651 0 
C 24.5605 28.36 0 
C 27.0165 25.524 0 
C 25.7885 26.233 0 
C 25.7885 27.651 0 
C 27.0165 28.36 0 
C 29.4726 25.524 0 
C 28.2446 26.233 0 
C 28.2446 27.651 0 
C 29.4726 28.36 0 
C 31.9286 25.524 0 
C 30.7006 26.233 0 
C 30.7006 27.651 0 
C 31.9286 28.36 0 
C 34.3847 25.524 0 
C 33.1566 26.233 0 
C 33.1566 27.651 0 
C 34.3847 28.36 0 
C 36.8407 25.524 0 
C 35.6127 26.233 0 
C 35.6127 27.651 0 
C 36.8407 28.36 0 
C 39.2968 25.524 0 
C 38.0687 26.233 0 
C 38.0687 27.651 0 
C 39.2968 28.36 0 
C 41.7528 25.524 0 
C 40.5248 26.233 0 
C 40.5248 27.651 0 
C 41.7528 28.36 0 
C 44.2089 25.524 0 
C 42.9808 26.233 0 
C 42.9808 27.651 0 
C 44.2089 28.36 0 
C 46.6649 25.524 0 
C 45.4369 26.233 0 
C 45.4369 27.651 0 
C 46.6649 28.36 0 
C 49.121 25.524 0 
C 47.8929 26.233 0 
C 47.8929 27.651 0 
C 49.121 28.36 0 
C 51.577 25.524 0 
C 50.349 26.233 0 
C 50.349 27.651 0 
C 51.577 28.36 0 
C 54.0331 25.524 0 
C 52.805 26.233 0 
C 52.805 27.651 0 
C 54.0331 28.36 0 
C 56.4891 25.524 0 
C 55.2611 26.233 0 
C 55.2611 27.651 0 
C 56.4891 28.36 0 
C 58.9452 25.524 0 
C 57.7171 26.233 0 
C 57.7171 27.651 0 
C 58.9452 28.36 0 
C 61.4012 25.524 0 
C 60.1732 26.233 0 
C 60.1732 27.651 0 
C 61.4012 28.36 0 
C 63.8573 25.524 0 
C 62.6292 26.233 0 
C 62.6292 27.651 0 
C 63.8573 28.36 0 
C 66.3133 25.524 0 
C 65.0853 26.233 0 
C 65.0853 27.651 0 
C 66.3133 28.36 0 
C 68.7693 25.524 0 
C 67.5413 26.233 0 
C 67.5413 27.651 0 
C 68.7693 28.36 0 
C 71.2254 25.524 0 
C 69.9974 26.233 0 
C 69.9974 27.651 0 
C 71.2254 28.36 0 
C 73.6814 25.524 0 
C 72.4534 26.233 0 
C 72.4534 27.651 0 
C 73.6814 28.36 0 
C 76.1375 25.524 0 
C 74.9095 26.233 0 
C 74.9095 27.651 0 
C 76.1375 28.36 0 
C 78.5935 25.524 0 
C 77.3655 26.233 0 
C 77.3655 27.651 0 
C 78.5935 28.36 0 
C 81.0496 25.524 0 
C 79.8216 26.233 0 
C 79.8216 27.651 0 
C 81.0496 28.36 0 
C 83.5056 25.524 0 
C 82.2776 26.233 0 
C 82.2776 27.651 0 
C 83.5056 28.36 0 
C 85.9617 25.524 0 
C 84.7337 26.233 0 
C 84.7337 27.651 0 
C 85.9617 28.36 0 
C 88.4177 25.524 0 
C 87.1897 26.233 0 
C 87.1897 27.651 0 
C 88.4177 28.36 0 
C 89.6458 26.233 0 
C 89.6458 27.651 0 
C 0 29.778 0 
C -1.22802 30.487 0 
C -1.22802 31.905 0 
C 0 32.614 0 
C 2.45605 29.778 0 
C 1.22802 30.487 0 
C 1.22802 31.905 0 
C 2.45605 32.614 0 
C 4.9121 29.778 0 
C 3.68407 30.487 0 
C 3.68407 31.905 0 
C 4.9121 32.614 0 
C 7.36814 29.778 0 
C 6.14012 30.487 0 
C 6.14012 31.905 0 
C 7.36814 32.614 0 
C 9.82419 29.778 0 
C 8.59617 30.487 0 
C 8.59617 31.905 0 
C 9.82419 32.614 0 
C 12.2802 29.778 0 
C 11.0522 30.487 0 
C 11.0522 31.905 0 
C 12.2802 32.614 0 
C 14.7363 29.778 0 
C 13.5083 30.487 0 
C 13.5083 31.905 0 
C 14.7363 32.614 0 
C 17.1923 29.778 0 
C 15.9643 30.487 0 
C 15.9643 31.905 0 
C 17.1923 32.614 0 
C 19.6484 29.778 0 
C 18.4204 30.487 0 
C 18.4204 31.905 0 
C 19.6484 32.614 0 
C 22.1044 29.778 0 
C 20.8764 30.487 0 
C 20.8764 31.905 0 
C 22.1044 32.614 0 
C 24.5605 29.778 0 
C 23.3325 30.487 0 
C 23.3325 31.905 0 
C 24.5605 32.614 0 
C 27.0165 29.778 0 
C 25.7885 30.487 0 
C 25.7885 31.905 0 
C 27.0165 32.614 0 
C 29.4726 29.778 0 
C 28.2446 30.487 0 
C 28.2446 31.905 0 
C 29.4726 32.614 0 
C 31.9286 29.778 0 
C 30.7006 30.487 0 
C 30.7006 31.905 0 
C 31.9286 32.614 0 
C 34.3847 29.778 0 
C 33.1566 30.487 0 
C 33.1566 31.905 0 
C 34.3847 32.614 0 
C 36.8407 29.778 0 
C 35.6127 30.487 0 
C 35.6127 31.905 0 
C 36.8407 32.614 0 
C 39.2968 29.778 0 
C 38.0687 30.487 0 
C 38.0687 31.905 0 
C 39.2968 32.614 0 
C 41.7528 29.778 0 
C 40.5248 30.487 0 
C 40.5248 31.905 0 
C 41.7528 32.614 0 
C 44.2089 29.778 0 
C 42.9808 30.487 0 
C 42.9808 31.905 0 
C 44.2089 32.614 0 
C 46.6649 29.778 0 
C 45.4369 30.487 0 
C 45.4369 31.905 0 
C 46.6649 32.614 0 
C 49.121 29.778 0 
C 47.8929 30.487 0 
C 47.8929 31.905 0 
C 49.121 32.614 0 
C 51.577 29.778 0 
C 50.349 30.487 0 
C 50.349 31.905 0 
C 51.577 32.614 0 
C 54.0331 29.778 0 
C 52.805 30.487 0 
C 52.805 31.905 0 
C 54.0331 32.614 0 
C 56.4891 29.778 0 
C 55.2611 30.487 0 
C 55.2611 31.905 0 
C 56.4891 32.614 0 
C 58.9452 29.778 0 
C 57.7171 30.487 0 
C 57.7171 31.905 0 
C 58.9452 32.614 0 
C 61.4012 29.778 0 
C 60.1732 30.487 0 
C 60.1732 31.905 0 
C 61.4012 32.614 0 
C 63.8573 29.778 0 
C 62.6292 30.487 0 
C 62.6292 31.905 0 
C 63.8573 32.614 0 
C 66.3133 29.778 0 
C 65.0853 30.487 0 
C 65.0853 31.905 0 
C 66.3133 32.614 0 
C 68.7693 29.778 0 
C 67.5413 30.487 0 
C 67.5413 31.905 0 
C 68.7693 32.614 0 
C 71.2254 29.778 0 
C 69.9974 30.487 0 
C 69.9974 31.905 0 
C 71.2254 32.614 0 
C 73.6814 29.778 0 
C 72.4534 30.487 0 
C 72.4534 31.905 0 
C 73.6814 32.614 0 
C 76.1375 29.778 0 
C 74.9095 30.487 0 
C 74.9095 31.905 0 
C 76.1375 32.614 0 
C 78.5935 29.778 0 
C 77.3655 30.487 0 
C 77.3655 31.905 0 
C 78.5935 32.614 0 
C 81.0496 29.778 0 
C 79.8216 30.487 0 
C 79.8216 31.905 0 
C 81.0496 32.614 0 
C 83.5056 29.778 0 
C 82.2776 30.487 0 
C 82.2776 31.905 0 
C 83.5056 32.614 0 
C 85.9617 29.778 0 
C 84.7337 30.487 0 
C 84.7337 31.905 0 
C 85.9617 32.614 0 
C 88.4177 29.778 0 
C 87.1897 30.487 0 
C 87.1897 31.905 0 
C 88.4177 32.614 0 
C 89.6458 30.487 0 
C 89.6458 31.905 0 
C 0 34.032 0 
C -1.22802 34.741 0 
C -1.22802 36.159 0 
C 0 36.868 0 
C 2.45605 34.032 0 
C 1.22802 34.741 0 
C 1.22802 36.159 0 
C 2.45605 36.868 0 
C 4.9121 34.032 0 
C 3.68407 34.741 0 
C 3.68407 36.159 0 
C 4.9121 36.868 0 
C 7.36814 34.032 0 
C 6.14012 34.741 0 
C 6.14012 36.159 0 
C 7.36814 36.868 0 
C 9.82419 34.032 0 
C 8.59617 34.741 0 
C 8.59617 36.159 0 
C 9.82419 36.868 0 
C 12.2802 34.032 0 
C 11.0522 34.741 0 
C 11.0522 36.159 0 
C 12.2802 36.868 0 
C 14.7363 34.032 0 
C 13.5083 34.741 0 
C 13.5083 36.159 0 
C 14.7363 36.868 0 
C 17.1923 34.032 0 
C 15.9643 34.741 0 
C 15.9643 36.159 0 
C 17.1923 36.868 0 
C 19.6484 34.032 0 
C 18.4204 34.741 0 
C 18.4204 36.159 0 
C 19.6484 36.868 0 
C 22.1044 34.032 0 
C 20.8764 34.741 0 
C 20.8764 36.159 0 
C 22.1044 36.868 0 
C 24.5605 34.032 0 
C 23.3325 34.741 0 
C 23.3325 36.159 0 
C 24.5605 36.868 0 
C 27.0165 34.032 0 
C 25.7885 34.741 0 
C 25.7885 36.159 0 
C 27.0165 36.868 0 
C 29.4726 34.032 0 
C 28.2446 34.741 0 
C 28.2446 36.159 0 
C 29.4726 36.868 0 
C 31.9286 34.032 0 
C 30.7006 34.741 0 
C 30.7006 36.159 0 
C 31.9286 36.868 0 
C 34.3847 34.032 0 
C 33.1566 34.741 0 
C 33.1566 36.159 0 
C 34.3847 36.868 0 
C 36.8407 34.032 0 
C 35.6127 34.741 0 
C 35.6127 36.159 0 
C 36.8407 36.868 0 
C 39.2968 34.032 0 
C 38.0687 34.741 0 
C 38.0687 36.159 0 
C 39.2968 36.868 0 
C 41.7528 34.032 0 
C 40.5248 34.741 0 
C 40.5248 36.159 0 
C 41.7528 36.868 0 
C 44.2089 34.032 0 
C 42.9808 34.741 0 
C 42.9808 36.159 0 
C 44.2089 36.868 0 
C 46.6649 34.032 0 
C 45.4369 34.741 0 
C 45.4369 36.159 0 
C 46.6649 36.868 0 
C 49.121 34.032 0 
C 47.8929 34.741 0 
C 47.8929 36.159 0 
C 49.121 36.868 0 
C 51.577 34.032 0 
C 50.349 34.741 0 
C 50.349 36.159 0 
C 51.577 36.868 0 
C 54.0331 34.032 0 
C 52.805 34.741 0 
C 52.805 36.159 0 
C 54.0331 36.868 0 
C 56.4891 34.032 0 
C 55.2611 34.741 0 
C 55.2611 36.159 0 
C 56.4891 36.868 0 
C 58.9452 34.032 0 
C 57.7171 34.741 0 
C 57.7171 36.159 0 
C 58.9452 36.868 0 
C 61.4012 34.032 0 
C 60.1732 34.741 0 
C 60.1732 36.159 0 
C 61.4012 36.868 0 
C 63.8573 34.032 0 
C 62.6292 34.741 0 
C 62.6292 36.159 0 
C 63.8573 36.868 0 
C 66.3133 34.032 0 
C 65.0853 34.741 0 
C 65.0853 36.159 0 
C 66.3133 36.868 0 
C 68.7693 34.032 0 
C 67.5413 34.741 0 
C 67.5413 36.159 0 
C 68.7693 36.868 0 
C 71.2254 34.032 0 
C 69.9974 34.741 0 
C 69.9974 36.159 0 
C 71.2254 36.868 0 
C 73.6814 34.032 0 
C 72.4534 34.741 0 
C 72.4534 36.159 0 
C 73.6814 36.868 0 
C 76.1375 34.032 0 
C 74.9095 34.741 0 
C 74.9095 36.159 0 
C 76.1375 36.868 0 
C 78.5935 34.032 0 
C 77.3655 34.741 0 
C 77.3655 36.159 0 
C 78.5935 36.868 0 
C 81.0496 34.032 0 
C 79.8216 34.741 0 
C 79.8216 36.159 0 
C 81.0496 36.868 0 
C 83.5056 34.032 0 
C 82.2776 34.741 0 
C 82.2776 36.159 0 
C 83.5056 36.868 0 
C 85.9617 34.032 0 
C 84.7337 34.741 0 
C 84.7337 36.159 0 
C 85.9617 36.868 0 
C 88.4177 34.032 0 
C 87.1897 34.741 0 
C 87.1897 36.159 0 
C 88.4177 36.868 0 
C 89.6458 34.741 0 
C 89.6458 36.159 0 
C 0 38.286 0 
C -1.22802 38.995 0 
C -1.22802 40.413 0 
C 0 41.122 0 
C 2.45605 38.286 0 
C 1.22802 38.995 0 
C 1.22802 40.413 0 
C 2.45605 41.122 0 
C 4.9121 38.286 0 
C 3.68407 38.995 0 
C 3.68407 40.413 0 
C 4.9121 41.122 0 
C 7.36814 38.286 0 
C 6.14012 38.995 0 
C 6.14012 40.413 0 
C 7.36814 41.122 0 
C 9.82419 38.286 0 
C 8.59617 38.995 0 
C 8.59617 40.413 0 
C 9.82419 41.122 0 
C 12.2802 38.286 0 
C 11.0522 38.995 0 
C 11.0522 40.413 0 
C 12.2802 41.122 0 
C 14.7363 38.286 0 
C 13.5083 38.995 0 
C 13.5083 40.413 0 
C 14.7363 41.122 0 
C 17.1923 38.286 0 
C 15.9643 38.995 0 
C 15.9643 40.413 0 
C 17.1923 41.122 0 
C 19.6484 38.286 0 
C 18.4204 38.995 0 
C 18.4204 40.413 0 
C 19.6484 41.122 0 
C 22.1044 38.286 0 
C 20.8764 38.995 0 
C 20.8764 40.413 0 
C 22.1044 41.122 0 
C 24.5605 38.286 0 
C 23.3325 38.995 0 
C 23.3325 40.413 0 
C 24.5605 41.122 0 
C 27.0165 38.286 0 
C 25.7885 38.995 0 
C 25.7885 40.413 0 
C 27.0165 41.122 0 
C 29.4726 38.286 0 
C 28.2446 38.995 0 
C 28.2446 40.413 0 
C 29.4726 41.122 0 
C 31.9286 38.286 0 
C 30.7006 38.995 0 
C 30.7006 40.413 0 
C 31.9286 41.122 0 
C 34.3847 38.286 0 
C 33.1566 38.995 0 
C 33.1566 40.413 0 
C 34.3847 41.122 0 
C 36.8407 38.286 0 
C 35.6127 38.995 0 
C 35.6127 40.413 0 
C 36.8407 41.122 0 
C 39.2968 38.286 0 
C 38.0687 38.995 0 
C 38.0687 40.413 0 
C 39.2968 41.122 0 
C 41.7528 38.286 0 
C 40.5248 38.995 0 
C 40.5248 40.413 0 
C 41.7528 41.122 0 
C 44.2089 38.286 0 
C 42.9808 38.995 0 
C 42.9808 40.413 0 
C 44.2089 41.122 0 
C 46.6649 38.286 0 
C 45.4369 38.995 0 
C 45.4369 40.413 0 
C 46.6649 41.122 0 
C 49.121 38.286 0 
C 47.8929 38.995 0 
C 47.8929 40.413 0 
C 49.121 41.122 0 
C 51.577 38.286 0 
C 50.349 38.995 0 
C 50.349 40.413 0 
C 51.577 41.122 0 
C 54.0331 38.286 0 
C 52.805 38.995 0 
C 52.805 40.413 0 
C 54.0331 41.122 0 
C 56.4891 38.286 0 
C 55.2611 38.995 0 
C 55.2611 40.413 0 
C 56.4891 41.122 0 
C 58.9452 38.286 0 
C 57.7171 38.995 0 
C 57.7171 40.413 0 
C 58.9452 41.122 0 
C 61.4012 38.286 0 
C 60.1732 38.995 0 
C 60.1732 40.413 0 
C 61.4012 41.122 0 
C 63.8573 38.286 0 
C 62.6292 38.995 0 
C 62.6292 40.413 0 
C 63.8573 41.122 0 
C 66.3133 38.286 0 
C 65.0853 38.995 0 
C 65.0853 40.413 0 
C 66.3133 41.122 0 
C 68.7693 38.286 0 
C 67.5413 38.995 0 
C 67.5413 40.413 0 
C 68.7693 41.122 0 
C 71.2254 38.286 0 
C 69.9974 38.995 0 
C 69.9974 40.413 0 
C 71.2254 41.122 0 
C 73.6814 38.286 0 
C 72.4534 38.995 0 
C 72.4534 40.413 0 
C 73.6814 41.122 0 
C 76.1375 38.286 0 
C 74.9095 38.995 0 
C 74.9095 40.413 0 
C 76.1375 41.122 0 
C 78.5935 38.286 0 
C 77.3655 38.995 0 
C 77.3655 40.413 0 
C 78.5935 41.122 0 
C 81.0496 38.286 0 
C 79.8216 38.995 0 
C 79.8216 40.413 0 
C 81.0496 41.122 0 
C 83.5056 38.286 0 
C 82.2776 38.995 0 
C 82.2776 40.413 0 
C 83.5056 41.122 0 
C 85.9617 38.286 0 
C 84.7337 38.995 0 
C 84.7337 40.413 0 
C 85.9617 41.122 0 
C 88.4177 38.286 0 
C 87.1897 38.995 0 
C 87.1897 40.413 0 
C 88.4177 41.122 0 
C 89.6458 38.995 0 
C 89.6458 40.413 0 
C 0 42.54 0 
C -1.22802 43.249 0 
C -1.22802 44.667 0 
C 0 45.376 0 
C 2.45605 42.54 0 
C 1.22802 43.249 0 
C 1.22802 44.667 0 
C 2.45605 45.376 0 
C 4.9121 42.54 0 
C 3.68407 43.249 0 
C 3.68407 44.667 0 
C 4.9121 45.376 0 
C 7.36814 42.54 0 
C 6.14012 43.249 0 
C 6.14012 44.667 0 
C 7.36814 45.376 0 
C 9.82419 42.54 0 
C 8.59617 43.249 0 
C 8.59617 44.667 0 
C 9.82419 45.376 0 
C 12.2802 42.54 0 
C 11.0522 43.249 0 
C 11.0522 44.667 0 
C 12.2802 45.376 0 
C 14.7363 42.54 0 
C 13.5083 43.249 0 
C 13.5083 44.667 0 
C 14.7363 45.376 0 
C 17.1923 42.54 0 
C 15.9643 43.249 0 
C 15.9643 44.667 0 
C 17.1923 45.376 0 
C 19.6484 42.54 0 
C 18.4204 43.249 0 
C 18.4204 44.667 0 
C 19.6484 45.376 0 