ITEM: TIMESTEP
0
ITEM: NUMBER OF ATOMS
1068
ITEM: BOX BOUNDS ff ff ff
-90 90
-90 90
-90 90
ITEM: ATOMS element x y z 
C 0 0 0 
C -1.22802 0.709 0 
C -1.22802 2.127 0 
C 0 2.836 0 
C 2.45605 0 0 
C 1.22802 0.709 0 
C 1.22802 2.127 0 
C 2.45605 2.836 0 
C 4.9121 0 0 
C 3.68407 0.709 0 
C 3.68407 2.127 0 
C 4.9121 2.836 0 
C 7.36814 0 0 
C 6.14012 0.709 0 
C 6.14012 2.127 0 
C 7.36814 2.836 0 
C 9.82419 0 0 
C 8.59617 0.709 0 
C 8.59617 2.127 0 
C 9.82419 2.836 0 
C 12.2802 0 0 
C 11.0522 0.709 0 
C 11.0522 2.127 0 
C 12.2802 2.836 0 
C 14.7363 0 0 
C 13.5083 0.709 0 
C 13.5083 2.127 0 
C 14.7363 2.836 0 
C 17.1923 0 0 
C 15.9643 0.709 0 
C 15.9643 2.127 0 
C 17.1923 2.836 0 
C 19.6484 0 0 
C 18.4204 0.709 0 
C 18.4204 2.127 0 
C 19.6484 2.836 0 
C 22.1044 0 0 
C 20.8764 0.709 0 
C 20.8764 2.127 0 
C 22.1044 2.836 0 
C 24.5605 0 0 
C 23.3325 0.709 0 
C 23.3325 2.127 0 
C 24.5605 2.836 0 
C 27.0165 0 0 
C 25.7885 0.709 0 
C 25.7885 2.127 0 
C 27.0165 2.836 0 
C 29.4726 0 0 
C 28.2446 0.709 0 
C 28.2446 2.127 0 
C 29.4726 2.836 0 
C 31.9286 0 0 
C 30.7006 0.709 0 
C 30.7006 2.127 0 
C 31.9286 2.836 0 
C 34.3847 0 0 
C 33.1566 0.709 0 
C 33.1566 2.127 0 
C 34.3847 2.836 0 
C 36.8407 0 0 
C 35.6127 0.709 0 
C 35.6127 2.127 0 
C 36.8407 2.836 0 
C 39.2968 0 0 
C 38.0687 0.709 0 
C 38.0687 2.127 0 
C 39.2968 2.836 0 
C 41.7528 0 0 
C 40.5248 0.709 0 
C 40.5248 2.127 0 
C 41.7528 2.836 0 
C 44.2089 0 0 
C 42.9808 0.709 0 
C 42.9808 2.127 0 
C 44.2089 2.836 0 
C 46.6649 0 0 
C 45.4369 0.709 0 
C 45.4369 2.127 0 
C 46.6649 2.836 0 
C 49.121 0 0 
C 47.8929 0.709 0 
C 47.8929 2.127 0 
C 49.121 2.836 0 
C 0 4.254 0 
C -1.22802 4.963 0 
C -1.22802 6.381 0 
C 0 7.09 0 
C 2.45605 4.254 0 
C 1.22802 4.963 0 
C 1.22802 6.381 0 
C 2.45605 7.09 0 
C 4.9121 4.254 0 
C 3.68407 4.963 0 
C 3.68407 6.381 0 
C 4.9121 7.09 0 
C 7.36814 4.254 0 
C 6.14012 4.963 0 
C 6.14012 6.381 0 
C 7.36814 7.09 0 
C 9.82419 4.254 0 
C 8.59617 4.963 0 
C 8.59617 6.381 0 
C 9.82419 7.09 0 
C 12.2802 4.254 0 
C 11.0522 4.963 0 
C 11.0522 6.381 0 
C 12.2802 7.09 0 
C 14.7363 4.254 0 
C 13.5083 4.963 0 
C 13.5083 6.381 0 
C 14.7363 7.09 0 
C 17.1923 4.254 0 
C 15.9643 4.963 0 
C 15.9643 6.381 0 
C 17.1923 7.09 0 
C 19.6484 4.254 0 
C 18.4204 4.963 0 
C 18.4204 6.381 0 
C 19.6484 7.09 0 
C 22.1044 4.254 0 
C 20.8764 4.963 0 
C 20.8764 6.381 0 
C 22.1044 7.09 0 
C 24.5605 4.254 0 
C 23.3325 4.963 0 
C 23.3325 6.381 0 
C 24.5605 7.09 0 
C 27.0165 4.254 0 
C 25.7885 4.963 0 
C 25.7885 6.381 0 
C 27.0165 7.09 0 
C 29.4726 4.254 0 
C 28.2446 4.963 0 
C 28.2446 6.381 0 
C 29.4726 7.09 0 
C 31.9286 4.254 0 
C 30.7006 4.963 0 
C 30.7006 6.381 0 
C 31.9286 7.09 0 
C 34.3847 4.254 0 
C 33.1566 4.963 0 
C 33.1566 6.381 0 
C 34.3847 7.09 0 
C 36.8407 4.254 0 
C 35.6127 4.963 0 
C 35.6127 6.381 0 
C 36.8407 7.09 0 
C 39.2968 4.254 0 
C 38.0687 4.963 0 
C 38.0687 6.381 0 
C 39.2968 7.09 0 
C 41.7528 4.254 0 
C 40.5248 4.963 0 
C 40.5248 6.381 0 
C 41.7528 7.09 0 
C 44.2089 4.254 0 
C 42.9808 4.963 0 
C 42.9808 6.381 0 
C 44.2089 7.09 0 
C 46.6649 4.254 0 
C 45.4369 4.963 0 
C 45.4369 6.381 0 
C 46.6649 7.09 0 
C 49.121 4.254 0 
C 47.8929 4.963 0 
C 47.8929 6.381 0 
C 49.121 7.09 0 
C 0 8.508 0 
C -1.22802 9.217 0 
C -1.22802 10.635 0 
C 0 11.344 0 
C 2.45605 8.508 0 
C 1.22802 9.217 0 
C 1.22802 10.635 0 
C 2.45605 11.344 0 
C 4.9121 8.508 0 
C 3.68407 9.217 0 
C 3.68407 10.635 0 
C 4.9121 11.344 0 
C 7.36814 8.508 0 
C 6.14012 9.217 0 
C 6.14012 10.635 0 
C 7.36814 11.344 0 
C 9.82419 8.508 0 
C 8.59617 9.217 0 
C 8.59617 10.635 0 
C 9.82419 11.344 0 
C 12.2802 8.508 0 
C 11.0522 9.217 0 
C 11.0522 10.635 0 
C 12.2802 11.344 0 
C 14.7363 8.508 0 
C 13.5083 9.217 0 
C 13.5083 10.635 0 
C 14.7363 11.344 0 
C 17.1923 8.508 0 
C 15.9643 9.217 0 
C 15.9643 10.635 0 
C 17.1923 11.344 0 
C 19.6484 8.508 0 
C 18.4204 9.217 0 
C 18.4204 10.635 0 
C 19.6484 11.344 0 
C 22.1044 8.508 0 
C 20.8764 9.217 0 
C 20.8764 10.635 0 
C 22.1044 11.344 0 
C 24.5605 8.508 0 
C 23.3325 9.217 0 
C 23.3325 10.635 0 
C 24.5605 11.344 0 
C 27.0165 8.508 0 
C 25.7885 9.217 0 
C 25.7885 10.635 0 
C 27.0165 11.344 0 
C 29.4726 8.508 0 
C 28.2446 9.217 0 
C 28.2446 10.635 0 
C 29.4726 11.344 0 
C 31.9286 8.508 0 
C 30.7006 9.217 0 
C 30.7006 10.635 0 
C 31.9286 11.344 0 
C 34.3847 8.508 0 
C 33.1566 9.217 0 
C 33.1566 10.635 0 
C 34.3847 11.344 0 
C 36.8407 8.508 0 
C 35.6127 9.217 0 
C 35.6127 10.635 0 
C 36.8407 11.344 0 
C 39.2968 8.508 0 
C 38.0687 9.217 0 
C 38.0687 10.635 0 
C 39.2968 11.344 0 
C 41.7528 8.508 0 
C 40.5248 9.217 0 
C 40.5248 10.635 0 
C 41.7528 11.344 0 
C 44.2089 8.508 0 
C 42.9808 9.217 0 
C 42.9808 10.635 0 
C 44.2089 11.344 0 
C 46.6649 8.508 0 
C 45.4369 9.217 0 
C 45.4369 10.635 0 
C 46.6649 11.344 0 
C 49.121 8.508 0 
C 47.8929 9.217 0 
C 47.8929 10.635 0 
C 49.121 11.344 0 
C 0 12.762 0 
C -1.22802 13.471 0 
C -1.22802 14.889 0 
C 0 15.598 0 
C 2.45605 12.762 0 
C 1.22802 13.471 0 
C 1.22802 14.889 0 
C 2.45605 15.598 0 
C 4.9121 12.762 0 
C 3.68407 13.471 0 
C 3.68407 14.889 0 
C 4.9121 15.598 0 
C 7.36814 12.762 0 
C 6.14012 13.471 0 
C 6.14012 14.889 0 
C 7.36814 15.598 0 
C 9.82419 12.762 0 
C 8.59617 13.471 0 
C 8.59617 14.889 0 
C 9.82419 15.598 0 
C 12.2802 12.762 0 
C 11.0522 13.471 0 
C 11.0522 14.889 0 
C 12.2802 15.598 0 
C 14.7363 12.762 0 
C 13.5083 13.471 0 
C 13.5083 14.889 0 
C 14.7363 15.598 0 
C 17.1923 12.762 0 
C 15.9643 13.471 0 
C 15.9643 14.889 0 
C 17.1923 15.598 0 
C 19.6484 12.762 0 
C 18.4204 13.471 0 
C 18.4204 14.889 0 
C 19.6484 15.598 0 
C 22.1044 12.762 0 
C 20.8764 13.471 0 
C 20.8764 14.889 0 
C 22.1044 15.598 0 
C 24.5605 12.762 0 
C 23.3325 13.471 0 
C 23.3325 14.889 0 
C 24.5605 15.598 0 
C 27.0165 12.762 0 
C 25.7885 13.471 0 
C 25.7885 14.889 0 
C 27.0165 15.598 0 
C 29.4726 12.762 0 
C 28.2446 13.471 0 
C 28.2446 14.889 0 
C 29.4726 15.598 0 
C 31.9286 12.762 0 
C 30.7006 13.471 0 
C 30.7006 14.889 0 
C 31.9286 15.598 0 
C 34.3847 12.762 0 
C 33.1566 13.471 0 
C 33.1566 14.889 0 
C 34.3847 15.598 0 
C 36.8407 12.762 0 
C 35.6127 13.471 0 
C 35.6127 14.889 0 
C 36.8407 15.598 0 
C 39.2968 12.762 0 
C 38.0687 13.471 0 
C 38.0687 14.889 0 
C 39.2968 15.598 0 
C 41.7528 12.762 0 
C 40.5248 13.471 0 
C 40.5248 14.889 0 
C 41.7528 15.598 0 
C 44.2089 12.762 0 
C 42.9808 13.471 0 
C 42.9808 14.889 0 
C 44.2089 15.598 0 
C 46.6649 12.762 0 
C 45.4369 13.471 0 
C 45.4369 14.889 0 
C 46.6649 15.598 0 
C 49.121 12.762 0 
C 47.8929 13.471 0 
C 47.8929 14.889 0 
C 49.121 15.598 0 
C 0 17.016 0 
C -1.22802 17.725 0 
C -1.22802 19.143 0 
C 0 19.852 0 
C 2.45605 17.016 0 
C 1.22802 17.725 0 
C 1.22802 19.143 0 
C 2.45605 19.852 0 
C 4.9121 17.016 0 
C 3.68407 17.725 0 
C 3.68407 19.143 0 
C 4.9121 19.852 0 
C 7.36814 17.016 0 
C 6.14012 17.725 0 
C 6.14012 19.143 0 
C 7.36814 19.852 0 
C 9.82419 17.016 0 
C 8.59617 17.725 0 
C 8.59617 19.143 0 
C 9.82419 19.852 0 
C 12.2802 17.016 0 
C 11.0522 17.725 0 
C 11.0522 19.143 0 
C 12.2802 19.852 0 
C 14.7363 17.016 0 
C 13.5083 17.725 0 
C 13.5083 19.143 0 
C 14.7363 19.852 0 
C 17.1923 17.016 0 
C 15.9643 17.725 0 
C 15.9643 19.143 0 
C 17.1923 19.852 0 
C 19.6484 17.016 0 
C 18.4204 17.725 0 
C 18.4204 19.143 0 
C 19.6484 19.852 0 
C 22.1044 17.016 0 
C 20.8764 17.725 0 
C 20.8764 19.143 0 
C 22.1044 19.852 0 
C 24.5605 17.016 0 
C 23.3325 17.725 0 
C 23.3325 19.143 0 
C 24.5605 19.852 0 
C 27.0165 17.016 0 
C 25.7885 17.725 0 
C 25.7885 19.143 0 
C 27.0165 19.852 0 
C 29.4726 17.016 0 
C 28.2446 17.725 0 
C 28.2446 19.143 0 
C 29.4726 19.852 0 
C 31.9286 17.016 0 
C 30.7006 17.725 0 
C 30.7006 19.143 0 
C 31.9286 19.852 0 
C 34.3847 17.016 0 
C 33.1566 17.725 0 
C 33.1566 19.143 0 
C 34.3847 19.852 0 
C 36.8407 17.016 0 
C 35.6127 17.725 0 
C 35.6127 19.143 0 
C 36.8407 19.852 0 
C 39.2968 17.016 0 
C 38.0687 17.725 0 
C 38.0687 19.143 0 
C 39.2968 19.852 0 
C 41.7528 17.016 0 
C 40.5248 17.725 0 
C 40.5248 19.143 0 
C 41.7528 19.852 0 
C 44.2089 17.016 0 
C 42.9808 17.725 0 
C 42.9808 19.143 0 
C 44.2089 19.852 0 
C 46.6649 17.016 0 
C 45.4369 17.725 0 
C 45.4369 19.143 0 
C 46.6649 19.852 0 
C 49.121 17.016 0 
C 47.8929 17.725 0 
C 47.8929 19.143 0 
C 49.121 19.852 0 
C 0 21.27 0 
C -1.22802 21.979 0 
C -1.22802 23.397 0 
C 0 24.106 0 
C 2.45605 21.27 0 
C 1.22802 21.979 0 
C 1.22802 23.397 0 
C 2.45605 24.106 0 
C 4.9121 21.27 0 
C 3.68407 21.979 0 
C 3.68407 23.397 0 
C 4.9121 24.106 0 
C 7.36814 21.27 0 
C 6.14012 21.979 0 
C 6.14012 23.397 0 
C 7.36814 24.106 0 
C 9.82419 21.27 0 
C 8.59617 21.979 0 
C 8.59617 23.397 0 
C 9.82419 24.106 0 
C 12.2802 21.27 0 
C 11.0522 21.979 0 
C 11.0522 23.397 0 
C 12.2802 24.106 0 
C 14.7363 21.27 0 
C 13.5083 21.979 0 
C 13.5083 23.397 0 
C 14.7363 24.106 0 
C 17.1923 21.27 0 
C 15.9643 21.979 0 
C 15.9643 23.397 0 
C 17.1923 24.106 0 
C 19.6484 21.27 0 
C 18.4204 21.979 0 
C 18.4204 23.397 0 
C 19.6484 24.106 0 
C 22.1044 21.27 0 
C 20.8764 21.979 0 
C 20.8764 23.397 0 
C 22.1044 24.106 0 
C 24.5605 21.27 0 
C 23.3325 21.979 0 
C 23.3325 23.397 0 
C 24.5605 24.106 0 
C 27.0165 21.27 0 
C 25.7885 21.979 0 
C 25.7885 23.397 0 
C 27.0165 24.106 0 
C 29.4726 21.27 0 
C 28.2446 21.979 0 
C 28.2446 23.397 0 
C 29.4726 24.106 0 
C 31.9286 21.27 0 
C 30.7006 21.979 0 
C 30.7006 23.397 0 
C 31.9286 24.106 0 
C 34.3847 21.27 0 
C 33.1566 21.979 0 
C 33.1566 23.397 0 
C 34.3847 24.106 0 
C 36.8407 21.27 0 
C 35.6127 21.979 0 
C 35.6127 23.397 0 
C 36.8407 24.106 0 
C 39.2968 21.27 0 
C 38.0687 21.979 0 
C 38.0687 23.397 0 
C 39.2968 24.106 0 
C 41.7528 21.27 0 
C 40.5248 21.979 0 
C 40.5248 23.397 0 
C 41.7528 24.106 0 
C 44.2089 21.27 0 
C 42.9808 21.979 0 
C 42.9808 23.397 0 
C 44.2089 24.106 0 
C 46.6649 21.27 0 
C 45.4369 21.979 0 
C 45.4369 23.397 0 
C 46.6649 24.106 0 
C 49.121 21.27 0 
C 47.8929 21.979 0 
C 47.8929 23.397 0 
C 49.121 24.106 0 
C 0 25.524 0 
C -1.22802 26.233 0 
C -1.22802 27.651 0 
C 0 28.36 0 
C 2.45605 25.524 0 
C 1.22802 26.233 0 
C 1.22802 27.651 0 
C 2.45605 28.36 0 
C 4.9121 25.524 0 
C 3.68407 26.233 0 
C 3.68407 27.651 0 
C 4.9121 28.36 0 
C 7.36814 25.524 0 
C 6.14012 26.233 0 
C 6.14012 27.651 0 
C 7.36814 28.36 0 
C 9.82419 25.524 0 
C 8.59617 26.233 0 
C 8.59617 27.651 0 
C 9.82419 28.36 0 
C 12.2802 25.524 0 
C 11.0522 26.233 0 
C 11.0522 27.651 0 
C 12.2802 28.36 0 
C 14.7363 25.524 0 
C 13.5083 26.233 0 
C 13.5083 27.651 0 
C 14.7363 28.36 0 
C 17.1923 25.524 0 
C 15.9643 26.233 0 
C 15.9643 27.651 0 
C 17.1923 28.36 0 
C 19.6484 25.524 0 
C 18.4204 26.233 0 
C 18.4204 27.651 0 
C 19.6484 28.36 0 
C 22.1044 25.524 0 
C 20.8764 26.233 0 
C 20.8764 27.651 0 
C 22.1044 28.36 0 
C 24.5605 25.524 0 
C 23.3325 26.233 0 
C 23.3325 27.651 0 
C 24.5605 28.36 0 
C 27.0165 25.524 0 
C 25.7885 26.233 0 
C 25.7885 27.651 0 
C 27.0165 28.36 0 
C 29.4726 25.524 0 
C 28.2446 26.233 0 
C 28.2446 27.651 0 
C 29.4726 28.36 0 
C 31.9286 25.524 0 
C 30.7006 26.233 0 
C 30.7006 27.651 0 
C 31.9286 28.36 0 
C 34.3847 25.524 0 
C 33.1566 26.233 0 
C 33.1566 27.651 0 
C 34.3847 28.36 0 
C 36.8407 25.524 0 
C 35.6127 26.233 0 
C 35.6127 27.651 0 
C 36.8407 28.36 0 
C 39.2968 25.524 0 
C 38.0687 26.233 0 
C 38.0687 27.651 0 
C 39.2968 28.36 0 
C 41.7528 25.524 0 
C 40.5248 26.233 0 
C 40.5248 27.651 0 
C 41.7528 28.36 0 
C 44.2089 25.524 0 
C 42.9808 26.233 0 
C 42.9808 27.651 0 
C 44.2089 28.36 0 
C 46.6649 25.524 0 
C 45.4369 26.233 0 
C 45.4369 27.651 0 
C 46.6649 28.36 0 
C 49.121 25.524 0 
C 47.8929 26.233 0 
C 47.8929 27.651 0 
C 49.121 28.36 0 
C 0 29.778 0 
C -1.22802 30.487 0 
C -1.22802 31.905 0 
C 0 32.614 0 
C 2.45605 29.778 0 
C 1.22802 30.487 0 
C 1.22802 31.905 0 
C 2.45605 32.614 0 
C 4.9121 29.778 0 
C 3.68407 30.487 0 
C 3.68407 31.905 0 
C 4.9121 32.614 0 
C 7.36814 29.778 0 
C 6.14012 30.487 0 
C 6.14012 31.905 0 
C 7.36814 32.614 0 
C 9.82419 29.778 0 
C 8.59617 30.487 0 
C 8.59617 31.905 0 
C 9.82419 32.614 0 
C 12.2802 29.778 0 
C 11.0522 30.487 0 
C 11.0522 31.905 0 
C 12.2802 32.614 0 
C 14.7363 29.778 0 
C 13.5083 30.487 0 
C 13.5083 31.905 0 
C 14.7363 32.614 0 
C 17.1923 29.778 0 
C 15.9643 30.487 0 
C 15.9643 31.905 0 
C 17.1923 32.614 0 
C 19.6484 29.778 0 
C 18.4204 30.487 0 
C 18.4204 31.905 0 
C 19.6484 32.614 0 
C 22.1044 29.778 0 
C 20.8764 30.487 0 
C 20.8764 31.905 0 
C 22.1044 32.614 0 
C 24.5605 29.778 0 
C 23.3325 30.487 0 
C 23.3325 31.905 0 
C 24.5605 32.614 0 
C 27.0165 29.778 0 
C 25.7885 30.487 0 
C 25.7885 31.905 0 
C 27.0165 32.614 0 
C 29.4726 29.778 0 
C 28.2446 30.487 0 
C 28.2446 31.905 0 
C 29.4726 32.614 0 
C 31.9286 29.778 0 
C 30.7006 30.487 0 
C 30.7006 31.905 0 
C 31.9286 32.614 0 
C 34.3847 29.778 0 
C 33.1566 30.487 0 
C 33.1566 31.905 0 
C 34.3847 32.614 0 
C 36.8407 29.778 0 
C 35.6127 30.487 0 
C 35.6127 31.905 0 
C 36.8407 32.614 0 
C 39.2968 29.778 0 
C 38.0687 30.487 0 
C 38.0687 31.905 0 
C 39.2968 32.614 0 
C 41.7528 29.778 0 
C 40.5248 30.487 0 
C 40.5248 31.905 0 
C 41.7528 32.614 0 
C 44.2089 29.778 0 
C 42.9808 30.487 0 
C 42.9808 31.905 0 
C 44.2089 32.614 0 
C 46.6649 29.778 0 
C 45.4369 30.487 0 
C 45.4369 31.905 0 
C 46.6649 32.614 0 
C 49.121 29.778 0 
C 47.8929 30.487 0 
C 47.8929 31.905 0 
C 49.121 32.614 0 
C 0 34.032 0 
C -1.22802 34.741 0 
C -1.22802 36.159 0 
C 0 36.868 0 
C 2.45605 34.032 0 
C 1.22802 34.741 0 
C 1.22802 36.159 0 
C 2.45605 36.868 0 
C 4.9121 34.032 0 
C 3.68407 34.741 0 
C 3.68407 36.159 0 
C 4.9121 36.868 0 
C 7.36814 34.032 0 
C 6.14012 34.741 0 
C 6.14012 36.159 0 
C 7.36814 36.868 0 
C 9.82419 34.032 0 
C 8.59617 34.741 0 
C 8.59617 36.159 0 
C 9.82419 36.868 0 
C 12.2802 34.032 0 
C 11.0522 34.741 0 
C 11.0522 36.159 0 
C 12.2802 36.868 0 
C 14.7363 34.032 0 
C 13.5083 34.741 0 
C 13.5083 36.159 0 
C 14.7363 36.868 0 
C 17.1923 34.032 0 
C 15.9643 34.741 0 
C 15.9643 36.159 0 
C 17.1923 36.868 0 
C 19.6484 34.032 0 
C 18.4204 34.741 0 
C 18.4204 36.159 0 
C 19.6484 36.868 0 
C 22.1044 34.032 0 
C 20.8764 34.741 0 
C 20.8764 36.159 0 
C 22.1044 36.868 0 
C 24.5605 34.032 0 
C 23.3325 34.741 0 
C 23.3325 36.159 0 
C 24.5605 36.868 0 
C 27.0165 34.032 0 
C 25.7885 34.741 0 
C 25.7885 36.159 0 
C 27.0165 36.868 0 
C 29.4726 34.032 0 
C 28.2446 34.741 0 
C 28.2446 36.159 0 
C 29.4726 36.868 0 
C 31.9286 34.032 0 
C 30.7006 34.741 0 
C 30.7006 36.159 0 
C 31.9286 36.868 0 
C 34.3847 34.032 0 
C 33.1566 34.741 0 
C 33.1566 36.159 0 
C 34.3847 36.868 0 
C 36.8407 34.032 0 
C 35.6127 34.741 0 
C 35.6127 36.159 0 
C 36.8407 36.868 0 
C 39.2968 34.032 0 
C 38.0687 34.741 0 
C 38.0687 36.159 0 
C 39.2968 36.868 0 
C 41.7528 34.032 0 
C 40.5248 34.741 0 
C 40.5248 36.159 0 
C 41.7528 36.868 0 
C 44.2089 34.032 0 
C 42.9808 34.741 0 
C 42.9808 36.159 0 
C 44.2089 36.868 0 
C 46.6649 34.032 0 
C 45.4369 34.741 0 
C 45.4369 36.159 0 
C 46.6649 36.868 0 
C 49.121 34.032 0 
C 47.8929 34.741 0 
C 47.8929 36.159 0 
C 49.121 36.868 0 
C 0 38.286 0 
C -1.22802 38.995 0 
C -1.22802 40.413 0 
C 0 41.122 0 
C 2.45605 38.286 0 
C 1.22802 38.995 0 
C 1.22802 40.413 0 
C 2.45605 41.122 0 
C 4.9121 38.286 0 
C 3.68407 38.995 0 
C 3.68407 40.413 0 
C 4.9121 41.122 0 
C 7.36814 38.286 0 
C 6.14012 38.995 0 
C 6.14012 40.413 0 
C 7.36814 41.122 0 
C 9.82419 38.286 0 
C 8.59617 38.995 0 
C 8.59617 40.413 0 
C 9.82419 41.122 0 
C 12.2802 38.286 0 
C 11.0522 38.995 0 
C 11.0522 40.413 0 
C 12.2802 41.122 0 
C 14.7363 38.286 0 
C 13.5083 38.995 0 
C 13.5083 40.413 0 
C 14.7363 41.122 0 
C 17.1923 38.286 0 
C 15.9643 38.995 0 
C 15.9643 40.413 0 
C 17.1923 41.122 0 
C 19.6484 38.286 0 
C 18.4204 38.995 0 
C 18.4204 40.413 0 
C 19.6484 41.122 0 
C 22.1044 38.286 0 
C 20.8764 38.995 0 
C 20.8764 40.413 0 
C 22.1044 41.122 0 
C 24.5605 38.286 0 
C 23.3325 38.995 0 
C 23.3325 40.413 0 
C 24.5605 41.122 0 
C 27.0165 38.286 0 
C 25.7885 38.995 0 
C 25.7885 40.413 0 
C 27.0165 41.122 0 
C 29.4726 38.286 0 
C 28.2446 38.995 0 
C 28.2446 40.413 0 
C 29.4726 41.122 0 
C 31.9286 38.286 0 
C 30.7006 38.995 0 
C 30.7006 40.413 0 
C 31.9286 41.122 0 
C 34.3847 38.286 0 
C 33.1566 38.995 0 
C 33.1566 40.413 0 
C 34.3847 41.122 0 
C 36.8407 38.286 0 
C 35.6127 38.995 0 
C 35.6127 40.413 0 
C 36.8407 41.122 0 
C 39.2968 38.286 0 
C 38.0687 38.995 0 
C 38.0687 40.413 0 
C 39.2968 41.122 0 
C 41.7528 38.286 0 
C 40.5248 38.995 0 
C 40.5248 40.413 0 
C 41.7528 41.122 0 
C 44.2089 38.286 0 
C 42.9808 38.995 0 
C 42.9808 40.413 0 
C 44.2089 41.122 0 
C 46.6649 38.286 0 
C 45.4369 38.995 0 
C 45.4369 40.413 0 
C 46.6649 41.122 0 
C 49.121 38.286 0 
C 47.8929 38.995 0 
C 47.8929 40.413 0 
C 49.121 41.122 0 
C 0 42.54 0 
C -1.22802 43.249 0 
C -1.22802 44.667 0 
C 0 45.376 0 
C 2.45605 42.54 0 
C 1.22802 43.249 0 
C 1.22802 44.667 0 
C 2.45605 45.376 0 
C 4.9121 42.54 0 
C 3.68407 43.249 0 
C 3.68407 44.667 0 
C 4.9121 45.376 0 
C 7.36814 42.54 0 
C 6.14012 43.249 0 
C 6.14012 44.667 0 
C 7.36814 45.376 0 
C 9.82419 42.54 0 
C 8.59617 43.249 0 
C 8.59617 44.667 0 
C 9.82419 45.376 0 
C 12.2802 42.54 0 
C 11.0522 43.249 0 
C 11.0522 44.667 0 
C 12.2802 45.376 0 
C 14.7363 42.54 0 
C 13.5083 43.249 0 
C 13.5083 44.667 0 
C 14.7363 45.376 0 
C 17.1923 42.54 0 
C 15.9643 43.249 0 
C 15.9643 44.667 0 
C 17.1923 45.376 0 
C 19.6484 42.54 0 
C 18.4204 43.249 0 
C 18.4204 44.667 0 
C 19.6484 45.376 0 
C 22.1044 42.54 0 
C 20.8764 43.249 0 
C 20.8764 44.667 0 
C 22.1044 45.376 0 
C 24.5605 42.54 0 
C 23.3325 43.249 0 
C 23.3325 44.667 0 
C 24.5605 45.376 0 
C 27.0165 42.54 0 
C 25.7885 43.249 0 
C 25.7885 44.667 0 
C 27.0165 45.376 0 
C 29.4726 42.54 0 
C 28.2446 43.249 0 
C 28.2446 44.667 0 
C 29.4726 45.376 0 
C 31.9286 42.54 0 
C 30.7006 43.249 0 
C 30.7006 44.667 0 
C 31.9286 45.376 0 
C 34.3847 42.54 0 
C 33.1566 43.249 0 
C 33.1566 44.667 0 
C 34.3847 45.376 0 
C 36.8407 42.54 0 
C 35.6127 43.249 0 
C 35.6127 44.667 0 
C 36.8407 45.376 0 
C 39.2968 42.54 0 
C 38.0687 43.249 0 
C 38.0687 44.667 0 
C 39.2968 45.376 0 
C 41.7528 42.54 0 
C 40.5248 43.249 0 
C 40.5248 44.667 0 
C 41.7528 45.376 0 
C 44.2089 42.54 0 
C 42.9808 43.249 0 
C 42.9808 44.667 0 
C 44.2089 45.376 0 
C 46.6649 42.54 0 
C 45.4369 43.249 0 
C 45.4369 44.667 0 
C 46.6649 45.376 0 
C 49.121 42.54 0 
C 47.8929 43.249 0 
C 47.8929 44.667 0 
C 49.121 45.376 0 
C 0 46.794 0 
C -1.22802 47.503 0 
C -1.22802 48.921 0 
C 0 49.63 0 
C 2.45605 46.794 0 
C 1.22802 47.503 0 
C 1.22802 48.921 0 
C 2.45605 49.63 0 
C 4.9121 46.794 0 
C 3.68407 47.503 0 
C 3.68407 48.921 0 
C 4.9121 49.63 0 
C 7.36814 46.794 0 
C 6.14012 47.503 0 
C 6.14012 48.921 0 
C 7.36814 49.63 0 
C 9.82419 46.794 0 
C 8.59617 47.503 0 
C 8.59617 48.921 0 
C 9.82419 49.63 0 
C 12.2802 46.794 0 
C 11.0522 47.503 0 
C 11.0522 48.921 0 
C 12.2802 49.63 0 
C 14.7363 46.794 0 
C 13.5083 47.503 0 
C 13.5083 48.921 0 
C 14.7363 49.63 0 
C 17.1923 46.794 0 
C 15.9643 47.503 0 
C 15.9643 48.921 0 
C 17.1923 49.63 0 
C 19.6484 46.794 0 
C 18.4204 47.503 0 
C 18.4204 48.921 0 
C 19.6484 49.63 0 
C 22.1044 46.794 0 
C 20.8764 47.503 0 
C 20.8764 48.921 0 
C 22.1044 49.63 0 
C 24.5605 46.794 0 
C 23.3325 47.503 0 
C 23.3325 48.921 0 
C 24.5605 49.63 0 
C 27.0165 46.794 0 
C 25.7885 47.503 0 
C 25.7885 48.921 0 
C 27.0165 49.63 0 
C 29.4726 46.794 0 
C 28.2446 47.503 0 
C 28.2446 48.921 0 
C 29.4726 49.63 0 
C 31.9286 46.794 0 
C 30.7006 47.503 0 
C 30.7006 48.921 0 
C 31.9286 49.63 0 
C 34.3847 46.794 0 
C 33.1566 47.503 0 
C 33.1566 48.921 0 
C 34.3847 49.63 0 
C 36.8407 46.794 0 
C 35.6127 47.503 0 
C 35.6127 48.921 0 
C 36.8407 49.63 0 
C 39.2968 46.794 0 
C 38.0687 47.503 0 
C 38.0687 48.921 0 
C 39.2968 49.63 0 
C 41.7528 46.794 0 
C 40.5248 47.503 0 
C 40.5248 48.921 0 
C 41.7528 49.63 0 
C 44.2089 46.794 0 
C 42.9808 47.503 0 
C 42.9808 48.921 0 
C 44.2089 49.63 0 
C 46.6649 46.794 0 
C 45.4369 47.503 0 
C 45.4369 48.921 0 
C 46.6649 49.63 0 
C 49.121 46.794 0 
C 47.8929 47.503 0 
C 47.8929 48.921 0 
C 49.121 49.63 0 
C 23.4725 27.8625 -11.6368 
C 23.707 28.3841 -10.2867 
C 22.4618 26.822 -11.8559 
C 22.931 27.8656 -9.15497 
C 23.5935 27.5916 -7.87593 
C 25.1452 28.6284 -10.1389 
C 25.808 28.3544 -8.85919 
C 25.0324 27.8361 -7.72801 
C 24.0388 25.626 -13.4482 
C 25.0489 26.6659 -13.2293 
C 22.7448 25.7041 -12.7614 
C 24.7658 27.7844 -12.3234 
C 25.7995 28.2578 -11.3976 
C 26.3657 26.0213 -13.2091 
C 27.4 26.495 -12.2828 
C 27.117 27.613 -11.3773 
C 22.837 23.2069 -12.3048 
C 24.1302 23.1288 -12.9914 
C 22.1441 24.4948 -12.1897 
C 24.7312 24.3387 -13.5633 
C 26.1694 24.583 -13.4154 
C 24.9676 22.1639 -12.272 
C 26.4065 22.4084 -12.1241 
C 27.0072 23.6177 -12.6956 
C 21.528 23.9482 -9.78673 
C 22.2205 22.661 -9.90173 
C 21.4898 24.8654 -10.9311 
C 22.8751 22.2902 -11.1611 
C 24.192 21.6456 -11.1408 
C 22.883 22.387 -8.62268 
C 24.2005 21.7422 -8.60237 
C 24.8548 21.3716 -9.8611 
C 21.9208 26.8256 -9.37389 
C 21.959 25.9089 -8.23016 
C 21.6862 26.3037 -10.7247 
C 21.7625 24.4699 -8.43664 
C 22.6 23.505 -7.71722 
C 22.9928 26.3823 -7.30438 
C 23.8306 25.417 -6.58458 
C 23.6343 23.9787 -6.79094 
C 26.5275 22.1375 -8.36316 
C 25.2343 22.2156 -7.67659 
C 24.9511 23.3341 -6.77067 
C 27.5382 23.178 -8.14412 
C 28.0792 23.1744 -10.6261 
C 27.069 22.1344 -10.845 
C 26.293 21.6159 -9.71327 
C 28.3138 23.6963 -9.27533 
C 28.472 26.0518 -10.2133 
C 28.2375 25.5301 -11.5634 
C 28.041 24.0911 -11.7698 
C 28.5102 25.1346 -9.06896 
C 27.163 26.7931 -7.69518 
C 27.1249 27.7098 -8.83891 
C 27.7795 27.339 -10.0983 
C 27.8559 25.5052 -7.81024 
C 25.9613 24.374 -6.55174 
C 25.2688 25.6613 -6.43675 
C 25.8698 26.8712 -7.00861 
C 27.2551 24.296 -7.23865 
