ITEM: TIMESTEP
0
ITEM: NUMBER OF ATOMS
1008
ITEM: BOX BOUNDS ss ss ss
-1.22802 49.121
0 49.63
0 0
ITEM: ATOMS id type xu yu zu
 1 1 0 0 0
 2 1 -1.22802 0.709 0
 3 1 -1.22802 2.127 0
 4 1 0 2.836 0
 5 1 2.45605 0 0
 6 1 1.22802 0.709 0
 7 1 1.22802 2.127 0
 8 1 2.45605 2.836 0
 9 1 4.9121 0 0
 10 1 3.68407 0.709 0
 11 1 3.68407 2.127 0
 12 1 4.9121 2.836 0
 13 1 7.36814 0 0
 14 1 6.14012 0.709 0
 15 1 6.14012 2.127 0
 16 1 7.36814 2.836 0
 17 1 9.82419 0 0
 18 1 8.59617 0.709 0
 19 1 8.59617 2.127 0
 20 1 9.82419 2.836 0
 21 1 12.2802 0 0
 22 1 11.0522 0.709 0
 23 1 11.0522 2.127 0
 24 1 12.2802 2.836 0
 25 1 14.7363 0 0
 26 1 13.5083 0.709 0
 27 1 13.5083 2.127 0
 28 1 14.7363 2.836 0
 29 1 17.1923 0 0
 30 1 15.9643 0.709 0
 31 1 15.9643 2.127 0
 32 1 17.1923 2.836 0
 33 1 19.6484 0 0
 34 1 18.4204 0.709 0
 35 1 18.4204 2.127 0
 36 1 19.6484 2.836 0
 37 1 22.1044 0 0
 38 1 20.8764 0.709 0
 39 1 20.8764 2.127 0
 40 1 22.1044 2.836 0
 41 1 24.5605 0 0
 42 1 23.3325 0.709 0
 43 1 23.3325 2.127 0
 44 1 24.5605 2.836 0
 45 1 27.0165 0 0
 46 1 25.7885 0.709 0
 47 1 25.7885 2.127 0
 48 1 27.0165 2.836 0
 49 1 29.4726 0 0
 50 1 28.2446 0.709 0
 51 1 28.2446 2.127 0
 52 1 29.4726 2.836 0
 53 1 31.9286 0 0
 54 1 30.7006 0.709 0
 55 1 30.7006 2.127 0
 56 1 31.9286 2.836 0
 57 1 34.3847 0 0
 58 1 33.1566 0.709 0
 59 1 33.1566 2.127 0
 60 1 34.3847 2.836 0
 61 1 36.8407 0 0
 62 1 35.6127 0.709 0
 63 1 35.6127 2.127 0
 64 1 36.8407 2.836 0
 65 1 39.2968 0 0
 66 1 38.0687 0.709 0
 67 1 38.0687 2.127 0
 68 1 39.2968 2.836 0
 69 1 41.7528 0 0
 70 1 40.5248 0.709 0
 71 1 40.5248 2.127 0
 72 1 41.7528 2.836 0
 73 1 44.2089 0 0
 74 1 42.9808 0.709 0
 75 1 42.9808 2.127 0
 76 1 44.2089 2.836 0
 77 1 46.6649 0 0
 78 1 45.4369 0.709 0
 79 1 45.4369 2.127 0
 80 1 46.6649 2.836 0
 81 1 49.121 0 0
 82 1 47.8929 0.709 0
 83 1 47.8929 2.127 0
 84 1 49.121 2.836 0
 85 1 0 4.254 0
 86 1 -1.22802 4.963 0
 87 1 -1.22802 6.381 0
 88 1 0 7.09 0
 89 1 2.45605 4.254 0
 90 1 1.22802 4.963 0
 91 1 1.22802 6.381 0
 92 1 2.45605 7.09 0
 93 1 4.9121 4.254 0
 94 1 3.68407 4.963 0
 95 1 3.68407 6.381 0
 96 1 4.9121 7.09 0
 97 1 7.36814 4.254 0
 98 1 6.14012 4.963 0
 99 1 6.14012 6.381 0
 100 1 7.36814 7.09 0
 101 1 9.82419 4.254 0
 102 1 8.59617 4.963 0
 103 1 8.59617 6.381 0
 104 1 9.82419 7.09 0
 105 1 12.2802 4.254 0
 106 1 11.0522 4.963 0
 107 1 11.0522 6.381 0
 108 1 12.2802 7.09 0
 109 1 14.7363 4.254 0
 110 1 13.5083 4.963 0
 111 1 13.5083 6.381 0
 112 1 14.7363 7.09 0
 113 1 17.1923 4.254 0
 114 1 15.9643 4.963 0
 115 1 15.9643 6.381 0
 116 1 17.1923 7.09 0
 117 1 19.6484 4.254 0
 118 1 18.4204 4.963 0
 119 1 18.4204 6.381 0
 120 1 19.6484 7.09 0
 121 1 22.1044 4.254 0
 122 1 20.8764 4.963 0
 123 1 20.8764 6.381 0
 124 1 22.1044 7.09 0
 125 1 24.5605 4.254 0
 126 1 23.3325 4.963 0
 127 1 23.3325 6.381 0
 128 1 24.5605 7.09 0
 129 1 27.0165 4.254 0
 130 1 25.7885 4.963 0
 131 1 25.7885 6.381 0
 132 1 27.0165 7.09 0
 133 1 29.4726 4.254 0
 134 1 28.2446 4.963 0
 135 1 28.2446 6.381 0
 136 1 29.4726 7.09 0
 137 1 31.9286 4.254 0
 138 1 30.7006 4.963 0
 139 1 30.7006 6.381 0
 140 1 31.9286 7.09 0
 141 1 34.3847 4.254 0
 142 1 33.1566 4.963 0
 143 1 33.1566 6.381 0
 144 1 34.3847 7.09 0
 145 1 36.8407 4.254 0
 146 1 35.6127 4.963 0
 147 1 35.6127 6.381 0
 148 1 36.8407 7.09 0
 149 1 39.2968 4.254 0
 150 1 38.0687 4.963 0
 151 1 38.0687 6.381 0
 152 1 39.2968 7.09 0
 153 1 41.7528 4.254 0
 154 1 40.5248 4.963 0
 155 1 40.5248 6.381 0
 156 1 41.7528 7.09 0
 157 1 44.2089 4.254 0
 158 1 42.9808 4.963 0
 159 1 42.9808 6.381 0
 160 1 44.2089 7.09 0
 161 1 46.6649 4.254 0
 162 1 45.4369 4.963 0
 163 1 45.4369 6.381 0
 164 1 46.6649 7.09 0
 165 1 49.121 4.254 0
 166 1 47.8929 4.963 0
 167 1 47.8929 6.381 0
 168 1 49.121 7.09 0
 169 1 0 8.508 0
 170 1 -1.22802 9.217 0
 171 1 -1.22802 10.635 0
 172 1 0 11.344 0
 173 1 2.45605 8.508 0
 174 1 1.22802 9.217 0
 175 1 1.22802 10.635 0
 176 1 2.45605 11.344 0
 177 1 4.9121 8.508 0
 178 1 3.68407 9.217 0
 179 1 3.68407 10.635 0
 180 1 4.9121 11.344 0
 181 1 7.36814 8.508 0
 182 1 6.14012 9.217 0
 183 1 6.14012 10.635 0
 184 1 7.36814 11.344 0
 185 1 9.82419 8.508 0
 186 1 8.59617 9.217 0
 187 1 8.59617 10.635 0
 188 1 9.82419 11.344 0
 189 1 12.2802 8.508 0
 190 1 11.0522 9.217 0
 191 1 11.0522 10.635 0
 192 1 12.2802 11.344 0
 193 1 14.7363 8.508 0
 194 1 13.5083 9.217 0
 195 1 13.5083 10.635 0
 196 1 14.7363 11.344 0
 197 1 17.1923 8.508 0
 198 1 15.9643 9.217 0
 199 1 15.9643 10.635 0
 200 1 17.1923 11.344 0
 201 1 19.6484 8.508 0
 202 1 18.4204 9.217 0
 203 1 18.4204 10.635 0
 204 1 19.6484 11.344 0
 205 1 22.1044 8.508 0
 206 1 20.8764 9.217 0
 207 1 20.8764 10.635 0
 208 1 22.1044 11.344 0
 209 1 24.5605 8.508 0
 210 1 23.3325 9.217 0
 211 1 23.3325 10.635 0
 212 1 24.5605 11.344 0
 213 1 27.0165 8.508 0
 214 1 25.7885 9.217 0
 215 1 25.7885 10.635 0
 216 1 27.0165 11.344 0
 217 1 29.4726 8.508 0
 218 1 28.2446 9.217 0
 219 1 28.2446 10.635 0
 220 1 29.4726 11.344 0
 221 1 31.9286 8.508 0
 222 1 30.7006 9.217 0
 223 1 30.7006 10.635 0
 224 1 31.9286 11.344 0
 225 1 34.3847 8.508 0
 226 1 33.1566 9.217 0
 227 1 33.1566 10.635 0
 228 1 34.3847 11.344 0
 229 1 36.8407 8.508 0
 230 1 35.6127 9.217 0
 231 1 35.6127 10.635 0
 232 1 36.8407 11.344 0
 233 1 39.2968 8.508 0
 234 1 38.0687 9.217 0
 235 1 38.0687 10.635 0
 236 1 39.2968 11.344 0
 237 1 41.7528 8.508 0
 238 1 40.5248 9.217 0
 239 1 40.5248 10.635 0
 240 1 41.7528 11.344 0
 241 1 44.2089 8.508 0
 242 1 42.9808 9.217 0
 243 1 42.9808 10.635 0
 244 1 44.2089 11.344 0
 245 1 46.6649 8.508 0
 246 1 45.4369 9.217 0
 247 1 45.4369 10.635 0
 248 1 46.6649 11.344 0
 249 1 49.121 8.508 0
 250 1 47.8929 9.217 0
 251 1 47.8929 10.635 0
 252 1 49.121 11.344 0
 253 1 0 12.762 0
 254 1 -1.22802 13.471 0
 255 1 -1.22802 14.889 0
 256 1 0 15.598 0
 257 1 2.45605 12.762 0
 258 1 1.22802 13.471 0
 259 1 1.22802 14.889 0
 260 1 2.45605 15.598 0
 261 1 4.9121 12.762 0
 262 1 3.68407 13.471 0
 263 1 3.68407 14.889 0
 264 1 4.9121 15.598 0
 265 1 7.36814 12.762 0
 266 1 6.14012 13.471 0
 267 1 6.14012 14.889 0
 268 1 7.36814 15.598 0
 269 1 9.82419 12.762 0
 270 1 8.59617 13.471 0
 271 1 8.59617 14.889 0
 272 1 9.82419 15.598 0
 273 1 12.2802 12.762 0
 274 1 11.0522 13.471 0
 275 1 11.0522 14.889 0
 276 1 12.2802 15.598 0
 277 1 14.7363 12.762 0
 278 1 13.5083 13.471 0
 279 1 13.5083 14.889 0
 280 1 14.7363 15.598 0
 281 1 17.1923 12.762 0
 282 1 15.9643 13.471 0
 283 1 15.9643 14.889 0
 284 1 17.1923 15.598 0
 285 1 19.6484 12.762 0
 286 1 18.4204 13.471 0
 287 1 18.4204 14.889 0
 288 1 19.6484 15.598 0
 289 1 22.1044 12.762 0
 290 1 20.8764 13.471 0
 291 1 20.8764 14.889 0
 292 1 22.1044 15.598 0
 293 1 24.5605 12.762 0
 294 1 23.3325 13.471 0
 295 1 23.3325 14.889 0
 296 1 24.5605 15.598 0
 297 1 27.0165 12.762 0
 298 1 25.7885 13.471 0
 299 1 25.7885 14.889 0
 300 1 27.0165 15.598 0
 301 1 29.4726 12.762 0
 302 1 28.2446 13.471 0
 303 1 28.2446 14.889 0
 304 1 29.4726 15.598 0
 305 1 31.9286 12.762 0
 306 1 30.7006 13.471 0
 307 1 30.7006 14.889 0
 308 1 31.9286 15.598 0
 309 1 34.3847 12.762 0
 310 1 33.1566 13.471 0
 311 1 33.1566 14.889 0
 312 1 34.3847 15.598 0
 313 1 36.8407 12.762 0
 314 1 35.6127 13.471 0
 315 1 35.6127 14.889 0
 316 1 36.8407 15.598 0
 317 1 39.2968 12.762 0
 318 1 38.0687 13.471 0
 319 1 38.0687 14.889 0
 320 1 39.2968 15.598 0
 321 1 41.7528 12.762 0
 322 1 40.5248 13.471 0
 323 1 40.5248 14.889 0
 324 1 41.7528 15.598 0
 325 1 44.2089 12.762 0
 326 1 42.9808 13.471 0
 327 1 42.9808 14.889 0
 328 1 44.2089 15.598 0
 329 1 46.6649 12.762 0
 330 1 45.4369 13.471 0
 331 1 45.4369 14.889 0
 332 1 46.6649 15.598 0
 333 1 49.121 12.762 0
 334 1 47.8929 13.471 0
 335 1 47.8929 14.889 0
 336 1 49.121 15.598 0
 337 1 0 17.016 0
 338 1 -1.22802 17.725 0
 339 1 -1.22802 19.143 0
 340 1 0 19.852 0
 341 1 2.45605 17.016 0
 342 1 1.22802 17.725 0
 343 1 1.22802 19.143 0
 344 1 2.45605 19.852 0
 345 1 4.9121 17.016 0
 346 1 3.68407 17.725 0
 347 1 3.68407 19.143 0
 348 1 4.9121 19.852 0
 349 1 7.36814 17.016 0
 350 1 6.14012 17.725 0
 351 1 6.14012 19.143 0
 352 1 7.36814 19.852 0
 353 1 9.82419 17.016 0
 354 1 8.59617 17.725 0
 355 1 8.59617 19.143 0
 356 1 9.82419 19.852 0
 357 1 12.2802 17.016 0
 358 1 11.0522 17.725 0
 359 1 11.0522 19.143 0
 360 1 12.2802 19.852 0
 361 1 14.7363 17.016 0
 362 1 13.5083 17.725 0
 363 1 13.5083 19.143 0
 364 1 14.7363 19.852 0
 365 1 17.1923 17.016 0
 366 1 15.9643 17.725 0
 367 1 15.9643 19.143 0
 368 1 17.1923 19.852 0
 369 1 19.6484 17.016 0
 370 1 18.4204 17.725 0
 371 1 18.4204 19.143 0
 372 1 19.6484 19.852 0
 373 1 22.1044 17.016 0
 374 1 20.8764 17.725 0
 375 1 20.8764 19.143 0
 376 1 22.1044 19.852 0
 377 1 24.5605 17.016 0
 378 1 23.3325 17.725 0
 379 1 23.3325 19.143 0
 380 1 24.5605 19.852 0
 381 1 27.0165 17.016 0
 382 1 25.7885 17.725 0
 383 1 25.7885 19.143 0
 384 1 27.0165 19.852 0
 385 1 29.4726 17.016 0
 386 1 28.2446 17.725 0
 387 1 28.2446 19.143 0
 388 1 29.4726 19.852 0
 389 1 31.9286 17.016 0
 390 1 30.7006 17.725 0
 391 1 30.7006 19.143 0
 392 1 31.9286 19.852 0
 393 1 34.3847 17.016 0
 394 1 33.1566 17.725 0
 395 1 33.1566 19.143 0
 396 1 34.3847 19.852 0
 397 1 36.8407 17.016 0
 398 1 35.6127 17.725 0
 399 1 35.6127 19.143 0
 400 1 36.8407 19.852 0
 401 1 39.2968 17.016 0
 402 1 38.0687 17.725 0
 403 1 38.0687 19.143 0
 404 1 39.2968 19.852 0
 405 1 41.7528 17.016 0
 406 1 40.5248 17.725 0
 407 1 40.5248 19.143 0
 408 1 41.7528 19.852 0
 409 1 44.2089 17.016 0
 410 1 42.9808 17.725 0
 411 1 42.9808 19.143 0
 412 1 44.2089 19.852 0
 413 1 46.6649 17.016 0
 414 1 45.4369 17.725 0
 415 1 45.4369 19.143 0
 416 1 46.6649 19.852 0
 417 1 49.121 17.016 0
 418 1 47.8929 17.725 0
 419 1 47.8929 19.143 0
 420 1 49.121 19.852 0
 421 1 0 21.27 0
 422 1 -1.22802 21.979 0
 423 1 -1.22802 23.397 0
 424 1 0 24.106 0
 425 1 2.45605 21.27 0
 426 1 1.22802 21.979 0
 427 1 1.22802 23.397 0
 428 1 2.45605 24.106 0
 429 1 4.9121 21.27 0
 430 1 3.68407 21.979 0
 431 1 3.68407 23.397 0
 432 1 4.9121 24.106 0
 433 1 7.36814 21.27 0
 434 1 6.14012 21.979 0
 435 1 6.14012 23.397 0
 436 1 7.36814 24.106 0
 437 1 9.82419 21.27 0
 438 1 8.59617 21.979 0
 439 1 8.59617 23.397 0
 440 1 9.82419 24.106 0
 441 1 12.2802 21.27 0
 442 1 11.0522 21.979 0
 443 1 11.0522 23.397 0
 444 1 12.2802 24.106 0
 445 1 14.7363 21.27 0
 446 1 13.5083 21.979 0
 447 1 13.5083 23.397 0
 448 1 14.7363 24.106 0
 449 1 17.1923 21.27 0
 450 1 15.9643 21.979 0
 451 1 15.9643 23.397 0
 452 1 17.1923 24.106 0
 453 1 19.6484 21.27 0
 454 1 18.4204 21.979 0
 455 1 18.4204 23.397 0
 456 1 19.6484 24.106 0
 457 1 22.1044 21.27 0
 458 1 20.8764 21.979 0
 459 1 20.8764 23.397 0
 460 1 22.1044 24.106 0
 461 1 24.5605 21.27 0
 462 1 23.3325 21.979 0
 463 1 23.3325 23.397 0
 464 1 24.5605 24.106 0
 465 1 27.0165 21.27 0
 466 1 25.7885 21.979 0
 467 1 25.7885 23.397 0
 468 1 27.0165 24.106 0
 469 1 29.4726 21.27 0
 470 1 28.2446 21.979 0
 471 1 28.2446 23.397 0
 472 1 29.4726 24.106 0
 473 1 31.9286 21.27 0
 474 1 30.7006 21.979 0
 475 1 30.7006 23.397 0
 476 1 31.9286 24.106 0
 477 1 34.3847 21.27 0
 478 1 33.1566 21.979 0
 479 1 33.1566 23.397 0
 480 1 34.3847 24.106 0
 481 1 36.8407 21.27 0
 482 1 35.6127 21.979 0
 483 1 35.6127 23.397 0
 484 1 36.8407 24.106 0
 485 1 39.2968 21.27 0
 486 1 38.0687 21.979 0
 487 1 38.0687 23.397 0
 488 1 39.2968 24.106 0
 489 1 41.7528 21.27 0
 490 1 40.5248 21.979 0
 491 1 40.5248 23.397 0
 492 1 41.7528 24.106 0
 493 1 44.2089 21.27 0
 494 1 42.9808 21.979 0
 495 1 42.9808 23.397 0
 496 1 44.2089 24.106 0
 497 1 46.6649 21.27 0
 498 1 45.4369 21.979 0
 499 1 45.4369 23.397 0
 500 1 46.6649 24.106 0
 501 1 49.121 21.27 0
 502 1 47.8929 21.979 0
 503 1 47.8929 23.397 0
 504 1 49.121 24.106 0
 505 1 0 25.524 0
 506 1 -1.22802 26.233 0
 507 1 -1.22802 27.651 0
 508 1 0 28.36 0
 509 1 2.45605 25.524 0
 510 1 1.22802 26.233 0
 511 1 1.22802 27.651 0
 512 1 2.45605 28.36 0
 513 1 4.9121 25.524 0
 514 1 3.68407 26.233 0
 515 1 3.68407 27.651 0
 516 1 4.9121 28.36 0
 517 1 7.36814 25.524 0
 518 1 6.14012 26.233 0
 519 1 6.14012 27.651 0
 520 1 7.36814 28.36 0
 521 1 9.82419 25.524 0
 522 1 8.59617 26.233 0
 523 1 8.59617 27.651 0
 524 1 9.82419 28.36 0
 525 1 12.2802 25.524 0
 526 1 11.0522 26.233 0
 527 1 11.0522 27.651 0
 528 1 12.2802 28.36 0
 529 1 14.7363 25.524 0
 530 1 13.5083 26.233 0
 531 1 13.5083 27.651 0
 532 1 14.7363 28.36 0
 533 1 17.1923 25.524 0
 534 1 15.9643 26.233 0
 535 1 15.9643 27.651 0
 536 1 17.1923 28.36 0
 537 1 19.6484 25.524 0
 538 1 18.4204 26.233 0
 539 1 18.4204 27.651 0
 540 1 19.6484 28.36 0
 541 1 22.1044 25.524 0
 542 1 20.8764 26.233 0
 543 1 20.8764 27.651 0
 544 1 22.1044 28.36 0
 545 1 24.5605 25.524 0
 546 1 23.3325 26.233 0
 547 1 23.3325 27.651 0
 548 1 24.5605 28.36 0
 549 1 27.0165 25.524 0
 550 1 25.7885 26.233 0
 551 1 25.7885 27.651 0
 552 1 27.0165 28.36 0
 553 1 29.4726 25.524 0
 554 1 28.2446 26.233 0
 555 1 28.2446 27.651 0
 556 1 29.4726 28.36 0
 557 1 31.9286 25.524 0
 558 1 30.7006 26.233 0
 559 1 30.7006 27.651 0
 560 1 31.9286 28.36 0
 561 1 34.3847 25.524 0
 562 1 33.1566 26.233 0
 563 1 33.1566 27.651 0
 564 1 34.3847 28.36 0
 565 1 36.8407 25.524 0
 566 1 35.6127 26.233 0
 567 1 35.6127 27.651 0
 568 1 36.8407 28.36 0
 569 1 39.2968 25.524 0
 570 1 38.0687 26.233 0
 571 1 38.0687 27.651 0
 572 1 39.2968 28.36 0
 573 1 41.7528 25.524 0
 574 1 40.5248 26.233 0
 575 1 40.5248 27.651 0
 576 1 41.7528 28.36 0
 577 1 44.2089 25.524 0
 578 1 42.9808 26.233 0
 579 1 42.9808 27.651 0
 580 1 44.2089 28.36 0
 581 1 46.6649 25.524 0
 582 1 45.4369 26.233 0
 583 1 45.4369 27.651 0
 584 1 46.6649 28.36 0
 585 1 49.121 25.524 0
 586 1 47.8929 26.233 0
 587 1 47.8929 27.651 0
 588 1 49.121 28.36 0
 589 1 0 29.778 0
 590 1 -1.22802 30.487 0
 591 1 -1.22802 31.905 0
 592 1 0 32.614 0
 593 1 2.45605 29.778 0
 594 1 1.22802 30.487 0
 595 1 1.22802 31.905 0
 596 1 2.45605 32.614 0
 597 1 4.9121 29.778 0
 598 1 3.68407 30.487 0
 599 1 3.68407 31.905 0
 600 1 4.9121 32.614 0
 601 1 7.36814 29.778 0
 602 1 6.14012 30.487 0
 603 1 6.14012 31.905 0
 604 1 7.36814 32.614 0
 605 1 9.82419 29.778 0
 606 1 8.59617 30.487 0
 607 1 8.59617 31.905 0
 608 1 9.82419 32.614 0
 609 1 12.2802 29.778 0
 610 1 11.0522 30.487 0
 611 1 11.0522 31.905 0
 612 1 12.2802 32.614 0
 613 1 14.7363 29.778 0
 614 1 13.5083 30.487 0
 615 1 13.5083 31.905 0
 616 1 14.7363 32.614 0
 617 1 17.1923 29.778 0
 618 1 15.9643 30.487 0
 619 1 15.9643 31.905 0
 620 1 17.1923 32.614 0
 621 1 19.6484 29.778 0
 622 1 18.4204 30.487 0
 623 1 18.4204 31.905 0
 624 1 19.6484 32.614 0
 625 1 22.1044 29.778 0
 626 1 20.8764 30.487 0
 627 1 20.8764 31.905 0
 628 1 22.1044 32.614 0
 629 1 24.5605 29.778 0
 630 1 23.3325 30.487 0
 631 1 23.3325 31.905 0
 632 1 24.5605 32.614 0
 633 1 27.0165 29.778 0
 634 1 25.7885 30.487 0
 635 1 25.7885 31.905 0
 636 1 27.0165 32.614 0
 637 1 29.4726 29.778 0
 638 1 28.2446 30.487 0
 639 1 28.2446 31.905 0
 640 1 29.4726 32.614 0
 641 1 31.9286 29.778 0
 642 1 30.7006 30.487 0
 643 1 30.7006 31.905 0
 644 1 31.9286 32.614 0
 645 1 34.3847 29.778 0
 646 1 33.1566 30.487 0
 647 1 33.1566 31.905 0
 648 1 34.3847 32.614 0
 649 1 36.8407 29.778 0
 650 1 35.6127 30.487 0
 651 1 35.6127 31.905 0
 652 1 36.8407 32.614 0
 653 1 39.2968 29.778 0
 654 1 38.0687 30.487 0
 655 1 38.0687 31.905 0
 656 1 39.2968 32.614 0
 657 1 41.7528 29.778 0
 658 1 40.5248 30.487 0
 659 1 40.5248 31.905 0
 660 1 41.7528 32.614 0
 661 1 44.2089 29.778 0
 662 1 42.9808 30.487 0
 663 1 42.9808 31.905 0
 664 1 44.2089 32.614 0
 665 1 46.6649 29.778 0
 666 1 45.4369 30.487 0
 667 1 45.4369 31.905 0
 668 1 46.6649 32.614 0
 669 1 49.121 29.778 0
 670 1 47.8929 30.487 0
 671 1 47.8929 31.905 0
 672 1 49.121 32.614 0
 673 1 0 34.032 0
 674 1 -1.22802 34.741 0
 675 1 -1.22802 36.159 0
 676 1 0 36.868 0
 677 1 2.45605 34.032 0
 678 1 1.22802 34.741 0
 679 1 1.22802 36.159 0
 680 1 2.45605 36.868 0
 681 1 4.9121 34.032 0
 682 1 3.68407 34.741 0
 683 1 3.68407 36.159 0
 684 1 4.9121 36.868 0
 685 1 7.36814 34.032 0
 686 1 6.14012 34.741 0
 687 1 6.14012 36.159 0
 688 1 7.36814 36.868 0
 689 1 9.82419 34.032 0
 690 1 8.59617 34.741 0
 691 1 8.59617 36.159 0
 692 1 9.82419 36.868 0
 693 1 12.2802 34.032 0
 694 1 11.0522 34.741 0
 695 1 11.0522 36.159 0
 696 1 12.2802 36.868 0
 697 1 14.7363 34.032 0
 698 1 13.5083 34.741 0
 699 1 13.5083 36.159 0
 700 1 14.7363 36.868 0
 701 1 17.1923 34.032 0
 702 1 15.9643 34.741 0
 703 1 15.9643 36.159 0
 704 1 17.1923 36.868 0
 705 1 19.6484 34.032 0
 706 1 18.4204 34.741 0
 707 1 18.4204 36.159 0
 708 1 19.6484 36.868 0
 709 1 22.1044 34.032 0
 710 1 20.8764 34.741 0
 711 1 20.8764 36.159 0
 712 1 22.1044 36.868 0
 713 1 24.5605 34.032 0
 714 1 23.3325 34.741 0
 715 1 23.3325 36.159 0
 716 1 24.5605 36.868 0
 717 1 27.0165 34.032 0
 718 1 25.7885 34.741 0
 719 1 25.7885 36.159 0
 720 1 27.0165 36.868 0
 721 1 29.4726 34.032 0
 722 1 28.2446 34.741 0
 723 1 28.2446 36.159 0
 724 1 29.4726 36.868 0
 725 1 31.9286 34.032 0
 726 1 30.7006 34.741 0
 727 1 30.7006 36.159 0
 728 1 31.9286 36.868 0
 729 1 34.3847 34.032 0
 730 1 33.1566 34.741 0
 731 1 33.1566 36.159 0
 732 1 34.3847 36.868 0
 733 1 36.8407 34.032 0
 734 1 35.6127 34.741 0
 735 1 35.6127 36.159 0
 736 1 36.8407 36.868 0
 737 1 39.2968 34.032 0
 738 1 38.0687 34.741 0
 739 1 38.0687 36.159 0
 740 1 39.2968 36.868 0
 741 1 41.7528 34.032 0
 742 1 40.5248 34.741 0
 743 1 40.5248 36.159 0
 744 1 41.7528 36.868 0
 745 1 44.2089 34.032 0
 746 1 42.9808 34.741 0
 747 1 42.9808 36.159 0
 748 1 44.2089 36.868 0
 749 1 46.6649 34.032 0
 750 1 45.4369 34.741 0
 751 1 45.4369 36.159 0
 752 1 46.6649 36.868 0
 753 1 49.121 34.032 0
 754 1 47.8929 34.741 0
 755 1 47.8929 36.159 0
 756 1 49.121 36.868 0
 757 1 0 38.286 0
 758 1 -1.22802 38.995 0
 759 1 -1.22802 40.413 0
 760 1 0 41.122 0
 761 1 2.45605 38.286 0
 762 1 1.22802 38.995 0
 763 1 1.22802 40.413 0
 764 1 2.45605 41.122 0
 765 1 4.9121 38.286 0
 766 1 3.68407 38.995 0
 767 1 3.68407 40.413 0
 768 1 4.9121 41.122 0
 769 1 7.36814 38.286 0
 770 1 6.14012 38.995 0
 771 1 6.14012 40.413 0
 772 1 7.36814 41.122 0
 773 1 9.82419 38.286 0
 774 1 8.59617 38.995 0
 775 1 8.59617 40.413 0
 776 1 9.82419 41.122 0
 777 1 12.2802 38.286 0
 778 1 11.0522 38.995 0
 779 1 11.0522 40.413 0
 780 1 12.2802 41.122 0
 781 1 14.7363 38.286 0
 782 1 13.5083 38.995 0
 783 1 13.5083 40.413 0
 784 1 14.7363 41.122 0
 785 1 17.1923 38.286 0
 786 1 15.9643 38.995 0
 787 1 15.9643 40.413 0
 788 1 17.1923 41.122 0
 789 1 19.6484 38.286 0
 790 1 18.4204 38.995 0
 791 1 18.4204 40.413 0
 792 1 19.6484 41.122 0
 793 1 22.1044 38.286 0
 794 1 20.8764 38.995 0
 795 1 20.8764 40.413 0
 796 1 22.1044 41.122 0
 797 1 24.5605 38.286 0
 798 1 23.3325 38.995 0
 799 1 23.3325 40.413 0
 800 1 24.5605 41.122 0
 801 1 27.0165 38.286 0
 802 1 25.7885 38.995 0
 803 1 25.7885 40.413 0
 804 1 27.0165 41.122 0
 805 1 29.4726 38.286 0
 806 1 28.2446 38.995 0
 807 1 28.2446 40.413 0
 808 1 29.4726 41.122 0
 809 1 31.9286 38.286 0
 810 1 30.7006 38.995 0
 811 1 30.7006 40.413 0
 812 1 31.9286 41.122 0
 813 1 34.3847 38.286 0
 814 1 33.1566 38.995 0
 815 1 33.1566 40.413 0
 816 1 34.3847 41.122 0
 817 1 36.8407 38.286 0
 818 1 35.6127 38.995 0
 819 1 35.6127 40.413 0
 820 1 36.8407 41.122 0
 821 1 39.2968 38.286 0
 822 1 38.0687 38.995 0
 823 1 38.0687 40.413 0
 824 1 39.2968 41.122 0
 825 1 41.7528 38.286 0
 826 1 40.5248 38.995 0
 827 1 40.5248 40.413 0
 828 1 41.7528 41.122 0
 829 1 44.2089 38.286 0
 830 1 42.9808 38.995 0
 831 1 42.9808 40.413 0
 832 1 44.2089 41.122 0
 833 1 46.6649 38.286 0
 834 1 45.4369 38.995 0
 835 1 45.4369 40.413 0
 836 1 46.6649 41.122 0
 837 1 49.121 38.286 0
 838 1 47.8929 38.995 0
 839 1 47.8929 40.413 0
 840 1 49.121 41.122 0
 841 1 0 42.54 0
 842 1 -1.22802 43.249 0
 843 1 -1.22802 44.667 0
 844 1 0 45.376 0
 845 1 2.45605 42.54 0
 846 1 1.22802 43.249 0
 847 1 1.22802 44.667 0
 848 1 2.45605 45.376 0
 849 1 4.9121 42.54 0
 850 1 3.68407 43.249 0
 851 1 3.68407 44.667 0
 852 1 4.9121 45.376 0
 853 1 7.36814 42.54 0
 854 1 6.14012 43.249 0
 855 1 6.14012 44.667 0
 856 1 7.36814 45.376 0
 857 1 9.82419 42.54 0
 858 1 8.59617 43.249 0
 859 1 8.59617 44.667 0
 860 1 9.82419 45.376 0
 861 1 12.2802 42.54 0
 862 1 11.0522 43.249 0
 863 1 11.0522 44.667 0
 864 1 12.2802 45.376 0
 865 1 14.7363 42.54 0
 866 1 13.5083 43.249 0
 867 1 13.5083 44.667 0
 868 1 14.7363 45.376 0
 869 1 17.1923 42.54 0
 870 1 15.9643 43.249 0
 871 1 15.9643 44.667 0
 872 1 17.1923 45.376 0
 873 1 19.6484 42.54 0
 874 1 18.4204 43.249 0
 875 1 18.4204 44.667 0
 876 1 19.6484 45.376 0
 877 1 22.1044 42.54 0
 878 1 20.8764 43.249 0
 879 1 20.8764 44.667 0
 880 1 22.1044 45.376 0
 881 1 24.5605 42.54 0
 882 1 23.3325 43.249 0
 883 1 23.3325 44.667 0
 884 1 24.5605 45.376 0
 885 1 27.0165 42.54 0
 886 1 25.7885 43.249 0
 887 1 25.7885 44.667 0
 888 1 27.0165 45.376 0
 889 1 29.4726 42.54 0
 890 1 28.2446 43.249 0
 891 1 28.2446 44.667 0
 892 1 29.4726 45.376 0
 893 1 31.9286 42.54 0
 894 1 30.7006 43.249 0
 895 1 30.7006 44.667 0
 896 1 31.9286 45.376 0
 897 1 34.3847 42.54 0
 898 1 33.1566 43.249 0
 899 1 33.1566 44.667 0
 900 1 34.3847 45.376 0
 901 1 36.8407 42.54 0
 902 1 35.6127 43.249 0
 903 1 35.6127 44.667 0
 904 1 36.8407 45.376 0
 905 1 39.2968 42.54 0
 906 1 38.0687 43.249 0
 907 1 38.0687 44.667 0
 908 1 39.2968 45.376 0
 909 1 41.7528 42.54 0
 910 1 40.5248 43.249 0
 911 1 40.5248 44.667 0
 912 1 41.7528 45.376 0
 913 1 44.2089 42.54 0
 914 1 42.9808 43.249 0
 915 1 42.9808 44.667 0
 916 1 44.2089 45.376 0
 917 1 46.6649 42.54 0
 918 1 45.4369 43.249 0
 919 1 45.4369 44.667 0
 920 1 46.6649 45.376 0
 921 1 49.121 42.54 0
 922 1 47.8929 43.249 0
 923 1 47.8929 44.667 0
 924 1 49.121 45.376 0
 925 1 0 46.794 0
 926 1 -1.22802 47.503 0
 927 1 -1.22802 48.921 0
 928 1 0 49.63 0
 929 1 2.45605 46.794 0
 930 1 1.22802 47.503 0
 931 1 1.22802 48.921 0
 932 1 2.45605 49.63 0
 933 1 4.9121 46.794 0
 934 1 3.68407 47.503 0
 935 1 3.68407 48.921 0
 936 1 4.9121 49.63 0
 937 1 7.36814 46.794 0
 938 1 6.14012 47.503 0
 939 1 6.14012 48.921 0
 940 1 7.36814 49.63 0
 941 1 9.82419 46.794 0
 942 1 8.59617 47.503 0
 943 1 8.59617 48.921 0
 944 1 9.82419 49.63 0
 945 1 12.2802 46.794 0
 946 1 11.0522 47.503 0
 947 1 11.0522 48.921 0
 948 1 12.2802 49.63 0
 949 1 14.7363 46.794 0
 950 1 13.5083 47.503 0
 951 1 13.5083 48.921 0
 952 1 14.7363 49.63 0
 953 1 17.1923 46.794 0
 954 1 15.9643 47.503 0
 955 1 15.9643 48.921 0
 956 1 17.1923 49.63 0
 957 1 19.6484 46.794 0
 958 1 18.4204 47.503 0
 959 1 18.4204 48.921 0
 960 1 19.6484 49.63 0
 961 1 22.1044 46.794 0
 962 1 20.8764 47.503 0
 963 1 20.8764 48.921 0
 964 1 22.1044 49.63 0
 965 1 24.5605 46.794 0
 966 1 23.3325 47.503 0
 967 1 23.3325 48.921 0
 968 1 24.5605 49.63 0
 969 1 27.0165 46.794 0
 970 1 25.7885 47.503 0
 971 1 25.7885 48.921 0
 972 1 27.0165 49.63 0
 973 1 29.4726 46.794 0
 974 1 28.2446 47.503 0
 975 1 28.2446 48.921 0
 976 1 29.4726 49.63 0
 977 1 31.9286 46.794 0
 978 1 30.7006 47.503 0
 979 1 30.7006 48.921 0
 980 1 31.9286 49.63 0
 981 1 34.3847 46.794 0
 982 1 33.1566 47.503 0
 983 1 33.1566 48.921 0
 984 1 34.3847 49.63 0
 985 1 36.8407 46.794 0
 986 1 35.6127 47.503 0
 987 1 35.6127 48.921 0
 988 1 36.8407 49.63 0
 989 1 39.2968 46.794 0
 990 1 38.0687 47.503 0
 991 1 38.0687 48.921 0
 992 1 39.2968 49.63 0
 993 1 41.7528 46.794 0
 994 1 40.5248 47.503 0
 995 1 40.5248 48.921 0
 996 1 41.7528 49.63 0
 997 1 44.2089 46.794 0
 998 1 42.9808 47.503 0
 999 1 42.9808 48.921 0
 1000 1 44.2089 49.63 0
 1001 1 46.6649 46.794 0
 1002 1 45.4369 47.503 0
 1003 1 45.4369 48.921 0
 1004 1 46.6649 49.63 0
 1005 1 49.121 46.794 0
 1006 1 47.8929 47.503 0
 1007 1 47.8929 48.921 0
 1008 1 49.121 49.63 0
