ITEM: TIMESTEP
0
ITEM: NUMBER OF ATOMS
1972
ITEM: BOX BOUNDS ss ss ss
-0.709 70.191
0 69.9974
0 0
ITEM: ATOMS id type xu yu zu
 1 1 0 0 0
 2 1 -0.709 1.22802 0
 3 1 1.418 0 0
 4 1 2.127 1.22802 0
 5 1 4.254 0 0
 6 1 3.545 1.22802 0
 7 1 5.672 0 0
 8 1 6.381 1.22802 0
 9 1 8.508 0 0
 10 1 7.799 1.22802 0
 11 1 9.926 0 0
 12 1 10.635 1.22802 0
 13 1 12.762 0 0
 14 1 12.053 1.22802 0
 15 1 14.18 0 0
 16 1 14.889 1.22802 0
 17 1 17.016 0 0
 18 1 16.307 1.22802 0
 19 1 18.434 0 0
 20 1 19.143 1.22802 0
 21 1 21.27 0 0
 22 1 20.561 1.22802 0
 23 1 22.688 0 0
 24 1 23.397 1.22802 0
 25 1 25.524 0 0
 26 1 24.815 1.22802 0
 27 1 26.942 0 0
 28 1 27.651 1.22802 0
 29 1 29.778 0 0
 30 1 29.069 1.22802 0
 31 1 31.196 0 0
 32 1 31.905 1.22802 0
 33 1 34.032 0 0
 34 1 33.323 1.22802 0
 35 1 35.45 0 0
 36 1 36.159 1.22802 0
 37 1 38.286 0 0
 38 1 37.577 1.22802 0
 39 1 39.704 0 0
 40 1 40.413 1.22802 0
 41 1 42.54 0 0
 42 1 41.831 1.22802 0
 43 1 43.958 0 0
 44 1 44.667 1.22802 0
 45 1 46.794 0 0
 46 1 46.085 1.22802 0
 47 1 48.212 0 0
 48 1 48.921 1.22802 0
 49 1 51.048 0 0
 50 1 50.339 1.22802 0
 51 1 52.466 0 0
 52 1 53.175 1.22802 0
 53 1 55.302 0 0
 54 1 54.593 1.22802 0
 55 1 56.72 0 0
 56 1 57.429 1.22802 0
 57 1 59.556 0 0
 58 1 58.847 1.22802 0
 59 1 60.974 0 0
 60 1 61.683 1.22802 0
 61 1 63.81 0 0
 62 1 63.101 1.22802 0
 63 1 65.228 0 0
 64 1 65.937 1.22802 0
 65 1 68.064 0 0
 66 1 67.355 1.22802 0
 67 1 69.482 0 0
 68 1 70.191 1.22802 0
 69 1 0 2.45605 0
 70 1 -0.709 3.68407 0
 71 1 1.418 2.45605 0
 72 1 2.127 3.68407 0
 73 1 4.254 2.45605 0
 74 1 3.545 3.68407 0
 75 1 5.672 2.45605 0
 76 1 6.381 3.68407 0
 77 1 8.508 2.45605 0
 78 1 7.799 3.68407 0
 79 1 9.926 2.45605 0
 80 1 10.635 3.68407 0
 81 1 12.762 2.45605 0
 82 1 12.053 3.68407 0
 83 1 14.18 2.45605 0
 84 1 14.889 3.68407 0
 85 1 17.016 2.45605 0
 86 1 16.307 3.68407 0
 87 1 18.434 2.45605 0
 88 1 19.143 3.68407 0
 89 1 21.27 2.45605 0
 90 1 20.561 3.68407 0
 91 1 22.688 2.45605 0
 92 1 23.397 3.68407 0
 93 1 25.524 2.45605 0
 94 1 24.815 3.68407 0
 95 1 26.942 2.45605 0
 96 1 27.651 3.68407 0
 97 1 29.778 2.45605 0
 98 1 29.069 3.68407 0
 99 1 31.196 2.45605 0
 100 1 31.905 3.68407 0
 101 1 34.032 2.45605 0
 102 1 33.323 3.68407 0
 103 1 35.45 2.45605 0
 104 1 36.159 3.68407 0
 105 1 38.286 2.45605 0
 106 1 37.577 3.68407 0
 107 1 39.704 2.45605 0
 108 1 40.413 3.68407 0
 109 1 42.54 2.45605 0
 110 1 41.831 3.68407 0
 111 1 43.958 2.45605 0
 112 1 44.667 3.68407 0
 113 1 46.794 2.45605 0
 114 1 46.085 3.68407 0
 115 1 48.212 2.45605 0
 116 1 48.921 3.68407 0
 117 1 51.048 2.45605 0
 118 1 50.339 3.68407 0
 119 1 52.466 2.45605 0
 120 1 53.175 3.68407 0
 121 1 55.302 2.45605 0
 122 1 54.593 3.68407 0
 123 1 56.72 2.45605 0
 124 1 57.429 3.68407 0
 125 1 59.556 2.45605 0
 126 1 58.847 3.68407 0
 127 1 60.974 2.45605 0
 128 1 61.683 3.68407 0
 129 1 63.81 2.45605 0
 130 1 63.101 3.68407 0
 131 1 65.228 2.45605 0
 132 1 65.937 3.68407 0
 133 1 68.064 2.45605 0
 134 1 67.355 3.68407 0
 135 1 69.482 2.45605 0
 136 1 70.191 3.68407 0
 137 1 0 4.9121 0
 138 1 -0.709 6.14012 0
 139 1 1.418 4.9121 0
 140 1 2.127 6.14012 0
 141 1 4.254 4.9121 0
 142 1 3.545 6.14012 0
 143 1 5.672 4.9121 0
 144 1 6.381 6.14012 0
 145 1 8.508 4.9121 0
 146 1 7.799 6.14012 0
 147 1 9.926 4.9121 0
 148 1 10.635 6.14012 0
 149 1 12.762 4.9121 0
 150 1 12.053 6.14012 0
 151 1 14.18 4.9121 0
 152 1 14.889 6.14012 0
 153 1 17.016 4.9121 0
 154 1 16.307 6.14012 0
 155 1 18.434 4.9121 0
 156 1 19.143 6.14012 0
 157 1 21.27 4.9121 0
 158 1 20.561 6.14012 0
 159 1 22.688 4.9121 0
 160 1 23.397 6.14012 0
 161 1 25.524 4.9121 0
 162 1 24.815 6.14012 0
 163 1 26.942 4.9121 0
 164 1 27.651 6.14012 0
 165 1 29.778 4.9121 0
 166 1 29.069 6.14012 0
 167 1 31.196 4.9121 0
 168 1 31.905 6.14012 0
 169 1 34.032 4.9121 0
 170 1 33.323 6.14012 0
 171 1 35.45 4.9121 0
 172 1 36.159 6.14012 0
 173 1 38.286 4.9121 0
 174 1 37.577 6.14012 0
 175 1 39.704 4.9121 0
 176 1 40.413 6.14012 0
 177 1 42.54 4.9121 0
 178 1 41.831 6.14012 0
 179 1 43.958 4.9121 0
 180 1 44.667 6.14012 0
 181 1 46.794 4.9121 0
 182 1 46.085 6.14012 0
 183 1 48.212 4.9121 0
 184 1 48.921 6.14012 0
 185 1 51.048 4.9121 0
 186 1 50.339 6.14012 0
 187 1 52.466 4.9121 0
 188 1 53.175 6.14012 0
 189 1 55.302 4.9121 0
 190 1 54.593 6.14012 0
 191 1 56.72 4.9121 0
 192 1 57.429 6.14012 0
 193 1 59.556 4.9121 0
 194 1 58.847 6.14012 0
 195 1 60.974 4.9121 0
 196 1 61.683 6.14012 0
 197 1 63.81 4.9121 0
 198 1 63.101 6.14012 0
 199 1 65.228 4.9121 0
 200 1 65.937 6.14012 0
 201 1 68.064 4.9121 0
 202 1 67.355 6.14012 0
 203 1 69.482 4.9121 0
 204 1 70.191 6.14012 0
 205 1 0 7.36814 0
 206 1 -0.709 8.59617 0
 207 1 1.418 7.36814 0
 208 1 2.127 8.59617 0
 209 1 4.254 7.36814 0
 210 1 3.545 8.59617 0
 211 1 5.672 7.36814 0
 212 1 6.381 8.59617 0
 213 1 8.508 7.36814 0
 214 1 7.799 8.59617 0
 215 1 9.926 7.36814 0
 216 1 10.635 8.59617 0
 217 1 12.762 7.36814 0
 218 1 12.053 8.59617 0
 219 1 14.18 7.36814 0
 220 1 14.889 8.59617 0
 221 1 17.016 7.36814 0
 222 1 16.307 8.59617 0
 223 1 18.434 7.36814 0
 224 1 19.143 8.59617 0
 225 1 21.27 7.36814 0
 226 1 20.561 8.59617 0
 227 1 22.688 7.36814 0
 228 1 23.397 8.59617 0
 229 1 25.524 7.36814 0
 230 1 24.815 8.59617 0
 231 1 26.942 7.36814 0
 232 1 27.651 8.59617 0
 233 1 29.778 7.36814 0
 234 1 29.069 8.59617 0
 235 1 31.196 7.36814 0
 236 1 31.905 8.59617 0
 237 1 34.032 7.36814 0
 238 1 33.323 8.59617 0
 239 1 35.45 7.36814 0
 240 1 36.159 8.59617 0
 241 1 38.286 7.36814 0
 242 1 37.577 8.59617 0
 243 1 39.704 7.36814 0
 244 1 40.413 8.59617 0
 245 1 42.54 7.36814 0
 246 1 41.831 8.59617 0
 247 1 43.958 7.36814 0
 248 1 44.667 8.59617 0
 249 1 46.794 7.36814 0
 250 1 46.085 8.59617 0
 251 1 48.212 7.36814 0
 252 1 48.921 8.59617 0
 253 1 51.048 7.36814 0
 254 1 50.339 8.59617 0
 255 1 52.466 7.36814 0
 256 1 53.175 8.59617 0
 257 1 55.302 7.36814 0
 258 1 54.593 8.59617 0
 259 1 56.72 7.36814 0
 260 1 57.429 8.59617 0
 261 1 59.556 7.36814 0
 262 1 58.847 8.59617 0
 263 1 60.974 7.36814 0
 264 1 61.683 8.59617 0
 265 1 63.81 7.36814 0
 266 1 63.101 8.59617 0
 267 1 65.228 7.36814 0
 268 1 65.937 8.59617 0
 269 1 68.064 7.36814 0
 270 1 67.355 8.59617 0
 271 1 69.482 7.36814 0
 272 1 70.191 8.59617 0
 273 1 0 9.82419 0
 274 1 -0.709 11.0522 0
 275 1 1.418 9.82419 0
 276 1 2.127 11.0522 0
 277 1 4.254 9.82419 0
 278 1 3.545 11.0522 0
 279 1 5.672 9.82419 0
 280 1 6.381 11.0522 0
 281 1 8.508 9.82419 0
 282 1 7.799 11.0522 0
 283 1 9.926 9.82419 0
 284 1 10.635 11.0522 0
 285 1 12.762 9.82419 0
 286 1 12.053 11.0522 0
 287 1 14.18 9.82419 0
 288 1 14.889 11.0522 0
 289 1 17.016 9.82419 0
 290 1 16.307 11.0522 0
 291 1 18.434 9.82419 0
 292 1 19.143 11.0522 0
 293 1 21.27 9.82419 0
 294 1 20.561 11.0522 0
 295 1 22.688 9.82419 0
 296 1 23.397 11.0522 0
 297 1 25.524 9.82419 0
 298 1 24.815 11.0522 0
 299 1 26.942 9.82419 0
 300 1 27.651 11.0522 0
 301 1 29.778 9.82419 0
 302 1 29.069 11.0522 0
 303 1 31.196 9.82419 0
 304 1 31.905 11.0522 0
 305 1 34.032 9.82419 0
 306 1 33.323 11.0522 0
 307 1 35.45 9.82419 0
 308 1 36.159 11.0522 0
 309 1 38.286 9.82419 0
 310 1 37.577 11.0522 0
 311 1 39.704 9.82419 0
 312 1 40.413 11.0522 0
 313 1 42.54 9.82419 0
 314 1 41.831 11.0522 0
 315 1 43.958 9.82419 0
 316 1 44.667 11.0522 0
 317 1 46.794 9.82419 0
 318 1 46.085 11.0522 0
 319 1 48.212 9.82419 0
 320 1 48.921 11.0522 0
 321 1 51.048 9.82419 0
 322 1 50.339 11.0522 0
 323 1 52.466 9.82419 0
 324 1 53.175 11.0522 0
 325 1 55.302 9.82419 0
 326 1 54.593 11.0522 0
 327 1 56.72 9.82419 0
 328 1 57.429 11.0522 0
 329 1 59.556 9.82419 0
 330 1 58.847 11.0522 0
 331 1 60.974 9.82419 0
 332 1 61.683 11.0522 0
 333 1 63.81 9.82419 0
 334 1 63.101 11.0522 0
 335 1 65.228 9.82419 0
 336 1 65.937 11.0522 0
 337 1 68.064 9.82419 0
 338 1 67.355 11.0522 0
 339 1 69.482 9.82419 0
 340 1 70.191 11.0522 0
 341 1 0 12.2802 0
 342 1 -0.709 13.5083 0
 343 1 1.418 12.2802 0
 344 1 2.127 13.5083 0
 345 1 4.254 12.2802 0
 346 1 3.545 13.5083 0
 347 1 5.672 12.2802 0
 348 1 6.381 13.5083 0
 349 1 8.508 12.2802 0
 350 1 7.799 13.5083 0
 351 1 9.926 12.2802 0
 352 1 10.635 13.5083 0
 353 1 12.762 12.2802 0
 354 1 12.053 13.5083 0
 355 1 14.18 12.2802 0
 356 1 14.889 13.5083 0
 357 1 17.016 12.2802 0
 358 1 16.307 13.5083 0
 359 1 18.434 12.2802 0
 360 1 19.143 13.5083 0
 361 1 21.27 12.2802 0
 362 1 20.561 13.5083 0
 363 1 22.688 12.2802 0
 364 1 23.397 13.5083 0
 365 1 25.524 12.2802 0
 366 1 24.815 13.5083 0
 367 1 26.942 12.2802 0
 368 1 27.651 13.5083 0
 369 1 29.778 12.2802 0
 370 1 29.069 13.5083 0
 371 1 31.196 12.2802 0
 372 1 31.905 13.5083 0
 373 1 34.032 12.2802 0
 374 1 33.323 13.5083 0
 375 1 35.45 12.2802 0
 376 1 36.159 13.5083 0
 377 1 38.286 12.2802 0
 378 1 37.577 13.5083 0
 379 1 39.704 12.2802 0
 380 1 40.413 13.5083 0
 381 1 42.54 12.2802 0
 382 1 41.831 13.5083 0
 383 1 43.958 12.2802 0
 384 1 44.667 13.5083 0
 385 1 46.794 12.2802 0
 386 1 46.085 13.5083 0
 387 1 48.212 12.2802 0
 388 1 48.921 13.5083 0
 389 1 51.048 12.2802 0
 390 1 50.339 13.5083 0
 391 1 52.466 12.2802 0
 392 1 53.175 13.5083 0
 393 1 55.302 12.2802 0
 394 1 54.593 13.5083 0
 395 1 56.72 12.2802 0
 396 1 57.429 13.5083 0
 397 1 59.556 12.2802 0
 398 1 58.847 13.5083 0
 399 1 60.974 12.2802 0
 400 1 61.683 13.5083 0
 401 1 63.81 12.2802 0
 402 1 63.101 13.5083 0
 403 1 65.228 12.2802 0
 404 1 65.937 13.5083 0
 405 1 68.064 12.2802 0
 406 1 67.355 13.5083 0
 407 1 69.482 12.2802 0
 408 1 70.191 13.5083 0
 409 1 0 14.7363 0
 410 1 -0.709 15.9643 0
 411 1 1.418 14.7363 0
 412 1 2.127 15.9643 0
 413 1 4.254 14.7363 0
 414 1 3.545 15.9643 0
 415 1 5.672 14.7363 0
 416 1 6.381 15.9643 0
 417 1 8.508 14.7363 0
 418 1 7.799 15.9643 0
 419 1 9.926 14.7363 0
 420 1 10.635 15.9643 0
 421 1 12.762 14.7363 0
 422 1 12.053 15.9643 0
 423 1 14.18 14.7363 0
 424 1 14.889 15.9643 0
 425 1 17.016 14.7363 0
 426 1 16.307 15.9643 0
 427 1 18.434 14.7363 0
 428 1 19.143 15.9643 0
 429 1 21.27 14.7363 0
 430 1 20.561 15.9643 0
 431 1 22.688 14.7363 0
 432 1 23.397 15.9643 0
 433 1 25.524 14.7363 0
 434 1 24.815 15.9643 0
 435 1 26.942 14.7363 0
 436 1 27.651 15.9643 0
 437 1 29.778 14.7363 0
 438 1 29.069 15.9643 0
 439 1 31.196 14.7363 0
 440 1 31.905 15.9643 0
 441 1 34.032 14.7363 0
 442 1 33.323 15.9643 0
 443 1 35.45 14.7363 0
 444 1 36.159 15.9643 0
 445 1 38.286 14.7363 0
 446 1 37.577 15.9643 0
 447 1 39.704 14.7363 0
 448 1 40.413 15.9643 0
 449 1 42.54 14.7363 0
 450 1 41.831 15.9643 0
 451 1 43.958 14.7363 0
 452 1 44.667 15.9643 0
 453 1 46.794 14.7363 0
 454 1 46.085 15.9643 0
 455 1 48.212 14.7363 0
 456 1 48.921 15.9643 0
 457 1 51.048 14.7363 0
 458 1 50.339 15.9643 0
 459 1 52.466 14.7363 0
 460 1 53.175 15.9643 0
 461 1 55.302 14.7363 0
 462 1 54.593 15.9643 0
 463 1 56.72 14.7363 0
 464 1 57.429 15.9643 0
 465 1 59.556 14.7363 0
 466 1 58.847 15.9643 0
 467 1 60.974 14.7363 0
 468 1 61.683 15.9643 0
 469 1 63.81 14.7363 0
 470 1 63.101 15.9643 0
 471 1 65.228 14.7363 0
 472 1 65.937 15.9643 0
 473 1 68.064 14.7363 0
 474 1 67.355 15.9643 0
 475 1 69.482 14.7363 0
 476 1 70.191 15.9643 0
 477 1 0 17.1923 0
 478 1 -0.709 18.4204 0
 479 1 1.418 17.1923 0
 480 1 2.127 18.4204 0
 481 1 4.254 17.1923 0
 482 1 3.545 18.4204 0
 483 1 5.672 17.1923 0
 484 1 6.381 18.4204 0
 485 1 8.508 17.1923 0
 486 1 7.799 18.4204 0
 487 1 9.926 17.1923 0
 488 1 10.635 18.4204 0
 489 1 12.762 17.1923 0
 490 1 12.053 18.4204 0
 491 1 14.18 17.1923 0
 492 1 14.889 18.4204 0
 493 1 17.016 17.1923 0
 494 1 16.307 18.4204 0
 495 1 18.434 17.1923 0
 496 1 19.143 18.4204 0
 497 1 21.27 17.1923 0
 498 1 20.561 18.4204 0
 499 1 22.688 17.1923 0
 500 1 23.397 18.4204 0
 501 1 25.524 17.1923 0
 502 1 24.815 18.4204 0
 503 1 26.942 17.1923 0
 504 1 27.651 18.4204 0
 505 1 29.778 17.1923 0
 506 1 29.069 18.4204 0
 507 1 31.196 17.1923 0
 508 1 31.905 18.4204 0
 509 1 34.032 17.1923 0
 510 1 33.323 18.4204 0
 511 1 35.45 17.1923 0
 512 1 36.159 18.4204 0
 513 1 38.286 17.1923 0
 514 1 37.577 18.4204 0
 515 1 39.704 17.1923 0
 516 1 40.413 18.4204 0
 517 1 42.54 17.1923 0
 518 1 41.831 18.4204 0
 519 1 43.958 17.1923 0
 520 1 44.667 18.4204 0
 521 1 46.794 17.1923 0
 522 1 46.085 18.4204 0
 523 1 48.212 17.1923 0
 524 1 48.921 18.4204 0
 525 1 51.048 17.1923 0
 526 1 50.339 18.4204 0
 527 1 52.466 17.1923 0
 528 1 53.175 18.4204 0
 529 1 55.302 17.1923 0
 530 1 54.593 18.4204 0
 531 1 56.72 17.1923 0
 532 1 57.429 18.4204 0
 533 1 59.556 17.1923 0
 534 1 58.847 18.4204 0
 535 1 60.974 17.1923 0
 536 1 61.683 18.4204 0
 537 1 63.81 17.1923 0
 538 1 63.101 18.4204 0
 539 1 65.228 17.1923 0
 540 1 65.937 18.4204 0
 541 1 68.064 17.1923 0
 542 1 67.355 18.4204 0
 543 1 69.482 17.1923 0
 544 1 70.191 18.4204 0
 545 1 0 19.6484 0
 546 1 -0.709 20.8764 0
 547 1 1.418 19.6484 0
 548 1 2.127 20.8764 0
 549 1 4.254 19.6484 0
 550 1 3.545 20.8764 0
 551 1 5.672 19.6484 0
 552 1 6.381 20.8764 0
 553 1 8.508 19.6484 0
 554 1 7.799 20.8764 0
 555 1 9.926 19.6484 0
 556 1 10.635 20.8764 0
 557 1 12.762 19.6484 0
 558 1 12.053 20.8764 0
 559 1 14.18 19.6484 0
 560 1 14.889 20.8764 0
 561 1 17.016 19.6484 0
 562 1 16.307 20.8764 0
 563 1 18.434 19.6484 0
 564 1 19.143 20.8764 0
 565 1 21.27 19.6484 0
 566 1 20.561 20.8764 0
 567 1 22.688 19.6484 0
 568 1 23.397 20.8764 0
 569 1 25.524 19.6484 0
 570 1 24.815 20.8764 0
 571 1 26.942 19.6484 0
 572 1 27.651 20.8764 0
 573 1 29.778 19.6484 0
 574 1 29.069 20.8764 0
 575 1 31.196 19.6484 0
 576 1 31.905 20.8764 0
 577 1 34.032 19.6484 0
 578 1 33.323 20.8764 0
 579 1 35.45 19.6484 0
 580 1 36.159 20.8764 0
 581 1 38.286 19.6484 0
 582 1 37.577 20.8764 0
 583 1 39.704 19.6484 0
 584 1 40.413 20.8764 0
 585 1 42.54 19.6484 0
 586 1 41.831 20.8764 0
 587 1 43.958 19.6484 0
 588 1 44.667 20.8764 0
 589 1 46.794 19.6484 0
 590 1 46.085 20.8764 0
 591 1 48.212 19.6484 0
 592 1 48.921 20.8764 0
 593 1 51.048 19.6484 0
 594 1 50.339 20.8764 0
 595 1 52.466 19.6484 0
 596 1 53.175 20.8764 0
 597 1 55.302 19.6484 0
 598 1 54.593 20.8764 0
 599 1 56.72 19.6484 0
 600 1 57.429 20.8764 0
 601 1 59.556 19.6484 0
 602 1 58.847 20.8764 0
 603 1 60.974 19.6484 0
 604 1 61.683 20.8764 0
 605 1 63.81 19.6484 0
 606 1 63.101 20.8764 0
 607 1 65.228 19.6484 0
 608 1 65.937 20.8764 0
 609 1 68.064 19.6484 0
 610 1 67.355 20.8764 0
 611 1 69.482 19.6484 0
 612 1 70.191 20.8764 0
 613 1 0 22.1044 0
 614 1 -0.709 23.3325 0
 615 1 1.418 22.1044 0
 616 1 2.127 23.3325 0
 617 1 4.254 22.1044 0
 618 1 3.545 23.3325 0
 619 1 5.672 22.1044 0
 620 1 6.381 23.3325 0
 621 1 8.508 22.1044 0
 622 1 7.799 23.3325 0
 623 1 9.926 22.1044 0
 624 1 10.635 23.3325 0
 625 1 12.762 22.1044 0
 626 1 12.053 23.3325 0
 627 1 14.18 22.1044 0
 628 1 14.889 23.3325 0
 629 1 17.016 22.1044 0
 630 1 16.307 23.3325 0
 631 1 18.434 22.1044 0
 632 1 19.143 23.3325 0
 633 1 21.27 22.1044 0
 634 1 20.561 23.3325 0
 635 1 22.688 22.1044 0
 636 1 23.397 23.3325 0
 637 1 25.524 22.1044 0
 638 1 24.815 23.3325 0
 639 1 26.942 22.1044 0
 640 1 27.651 23.3325 0
 641 1 29.778 22.1044 0
 642 1 29.069 23.3325 0
 643 1 31.196 22.1044 0
 644 1 31.905 23.3325 0
 645 1 34.032 22.1044 0
 646 1 33.323 23.3325 0
 647 1 35.45 22.1044 0
 648 1 36.159 23.3325 0
 649 1 38.286 22.1044 0
 650 1 37.577 23.3325 0
 651 1 39.704 22.1044 0
 652 1 40.413 23.3325 0
 653 1 42.54 22.1044 0
 654 1 41.831 23.3325 0
 655 1 43.958 22.1044 0
 656 1 44.667 23.3325 0
 657 1 46.794 22.1044 0
 658 1 46.085 23.3325 0
 659 1 48.212 22.1044 0
 660 1 48.921 23.3325 0
 661 1 51.048 22.1044 0
 662 1 50.339 23.3325 0
 663 1 52.466 22.1044 0
 664 1 53.175 23.3325 0
 665 1 55.302 22.1044 0
 666 1 54.593 23.3325 0
 667 1 56.72 22.1044 0
 668 1 57.429 23.3325 0
 669 1 59.556 22.1044 0
 670 1 58.847 23.3325 0
 671 1 60.974 22.1044 0
 672 1 61.683 23.3325 0
 673 1 63.81 22.1044 0
 674 1 63.101 23.3325 0
 675 1 65.228 22.1044 0
 676 1 65.937 23.3325 0
 677 1 68.064 22.1044 0
 678 1 67.355 23.3325 0
 679 1 69.482 22.1044 0
 680 1 70.191 23.3325 0
 681 1 0 24.5605 0
 682 1 -0.709 25.7885 0
 683 1 1.418 24.5605 0
 684 1 2.127 25.7885 0
 685 1 4.254 24.5605 0
 686 1 3.545 25.7885 0
 687 1 5.672 24.5605 0
 688 1 6.381 25.7885 0
 689 1 8.508 24.5605 0
 690 1 7.799 25.7885 0
 691 1 9.926 24.5605 0
 692 1 10.635 25.7885 0
 693 1 12.762 24.5605 0
 694 1 12.053 25.7885 0
 695 1 14.18 24.5605 0
 696 1 14.889 25.7885 0
 697 1 17.016 24.5605 0
 698 1 16.307 25.7885 0
 699 1 18.434 24.5605 0
 700 1 19.143 25.7885 0
 701 1 21.27 24.5605 0
 702 1 20.561 25.7885 0
 703 1 22.688 24.5605 0
 704 1 23.397 25.7885 0
 705 1 25.524 24.5605 0
 706 1 24.815 25.7885 0
 707 1 26.942 24.5605 0
 708 1 27.651 25.7885 0
 709 1 29.778 24.5605 0
 710 1 29.069 25.7885 0
 711 1 31.196 24.5605 0
 712 1 31.905 25.7885 0
 713 1 34.032 24.5605 0
 714 1 33.323 25.7885 0
 715 1 35.45 24.5605 0
 716 1 36.159 25.7885 0
 717 1 38.286 24.5605 0
 718 1 37.577 25.7885 0
 719 1 39.704 24.5605 0
 720 1 40.413 25.7885 0
 721 1 42.54 24.5605 0
 722 1 41.831 25.7885 0
 723 1 43.958 24.5605 0
 724 1 44.667 25.7885 0
 725 1 46.794 24.5605 0
 726 1 46.085 25.7885 0
 727 1 48.212 24.5605 0
 728 1 48.921 25.7885 0
 729 1 51.048 24.5605 0
 730 1 50.339 25.7885 0
 731 1 52.466 24.5605 0
 732 1 53.175 25.7885 0
 733 1 55.302 24.5605 0
 734 1 54.593 25.7885 0
 735 1 56.72 24.5605 0
 736 1 57.429 25.7885 0
 737 1 59.556 24.5605 0
 738 1 58.847 25.7885 0
 739 1 60.974 24.5605 0
 740 1 61.683 25.7885 0
 741 1 63.81 24.5605 0
 742 1 63.101 25.7885 0
 743 1 65.228 24.5605 0
 744 1 65.937 25.7885 0
 745 1 68.064 24.5605 0
 746 1 67.355 25.7885 0
 747 1 69.482 24.5605 0
 748 1 70.191 25.7885 0
 749 1 0 27.0165 0
 750 1 -0.709 28.2446 0
 751 1 1.418 27.0165 0
 752 1 2.127 28.2446 0
 753 1 4.254 27.0165 0
 754 1 3.545 28.2446 0
 755 1 5.672 27.0165 0
 756 1 6.381 28.2446 0
 757 1 8.508 27.0165 0
 758 1 7.799 28.2446 0
 759 1 9.926 27.0165 0
 760 1 10.635 28.2446 0
 761 1 12.762 27.0165 0
 762 1 12.053 28.2446 0
 763 1 14.18 27.0165 0
 764 1 14.889 28.2446 0
 765 1 17.016 27.0165 0
 766 1 16.307 28.2446 0
 767 1 18.434 27.0165 0
 768 1 19.143 28.2446 0
 769 1 21.27 27.0165 0
 770 1 20.561 28.2446 0
 771 1 22.688 27.0165 0
 772 1 23.397 28.2446 0
 773 1 25.524 27.0165 0
 774 1 24.815 28.2446 0
 775 1 26.942 27.0165 0
 776 1 27.651 28.2446 0
 777 1 29.778 27.0165 0
 778 1 29.069 28.2446 0
 779 1 31.196 27.0165 0
 780 1 31.905 28.2446 0
 781 1 34.032 27.0165 0
 782 1 33.323 28.2446 0
 783 1 35.45 27.0165 0
 784 1 36.159 28.2446 0
 785 1 38.286 27.0165 0
 786 1 37.577 28.2446 0
 787 1 39.704 27.0165 0
 788 1 40.413 28.2446 0
 789 1 42.54 27.0165 0
 790 1 41.831 28.2446 0
 791 1 43.958 27.0165 0
 792 1 44.667 28.2446 0
 793 1 46.794 27.0165 0
 794 1 46.085 28.2446 0
 795 1 48.212 27.0165 0
 796 1 48.921 28.2446 0
 797 1 51.048 27.0165 0
 798 1 50.339 28.2446 0
 799 1 52.466 27.0165 0
 800 1 53.175 28.2446 0
 801 1 55.302 27.0165 0
 802 1 54.593 28.2446 0
 803 1 56.72 27.0165 0
 804 1 57.429 28.2446 0
 805 1 59.556 27.0165 0
 806 1 58.847 28.2446 0
 807 1 60.974 27.0165 0
 808 1 61.683 28.2446 0
 809 1 63.81 27.0165 0
 810 1 63.101 28.2446 0
 811 1 65.228 27.0165 0
 812 1 65.937 28.2446 0
 813 1 68.064 27.0165 0
 814 1 67.355 28.2446 0
 815 1 69.482 27.0165 0
 816 1 70.191 28.2446 0
 817 1 0 29.4726 0
 818 1 -0.709 30.7006 0
 819 1 1.418 29.4726 0
 820 1 2.127 30.7006 0
 821 1 4.254 29.4726 0
 822 1 3.545 30.7006 0
 823 1 5.672 29.4726 0
 824 1 6.381 30.7006 0
 825 1 8.508 29.4726 0
 826 1 7.799 30.7006 0
 827 1 9.926 29.4726 0
 828 1 10.635 30.7006 0
 829 1 12.762 29.4726 0
 830 1 12.053 30.7006 0
 831 1 14.18 29.4726 0
 832 1 14.889 30.7006 0
 833 1 17.016 29.4726 0
 834 1 16.307 30.7006 0
 835 1 18.434 29.4726 0
 836 1 19.143 30.7006 0
 837 1 21.27 29.4726 0
 838 1 20.561 30.7006 0
 839 1 22.688 29.4726 0
 840 1 23.397 30.7006 0
 841 1 25.524 29.4726 0
 842 1 24.815 30.7006 0
 843 1 26.942 29.4726 0
 844 1 27.651 30.7006 0
 845 1 29.778 29.4726 0
 846 1 29.069 30.7006 0
 847 1 31.196 29.4726 0
 848 1 31.905 30.7006 0
 849 1 34.032 29.4726 0
 850 1 33.323 30.7006 0
 851 1 35.45 29.4726 0
 852 1 36.159 30.7006 0
 853 1 38.286 29.4726 0
 854 1 37.577 30.7006 0
 855 1 39.704 29.4726 0
 856 1 40.413 30.7006 0
 857 1 42.54 29.4726 0
 858 1 41.831 30.7006 0
 859 1 43.958 29.4726 0
 860 1 44.667 30.7006 0
 861 1 46.794 29.4726 0
 862 1 46.085 30.7006 0
 863 1 48.212 29.4726 0
 864 1 48.921 30.7006 0
 865 1 51.048 29.4726 0
 866 1 50.339 30.7006 0
 867 1 52.466 29.4726 0
 868 1 53.175 30.7006 0
 869 1 55.302 29.4726 0
 870 1 54.593 30.7006 0
 871 1 56.72 29.4726 0
 872 1 57.429 30.7006 0
 873 1 59.556 29.4726 0
 874 1 58.847 30.7006 0
 875 1 60.974 29.4726 0
 876 1 61.683 30.7006 0
 877 1 63.81 29.4726 0
 878 1 63.101 30.7006 0
 879 1 65.228 29.4726 0
 880 1 65.937 30.7006 0
 881 1 68.064 29.4726 0
 882 1 67.355 30.7006 0
 883 1 69.482 29.4726 0
 884 1 70.191 30.7006 0
 885 1 0 31.9286 0
 886 1 -0.709 33.1566 0
 887 1 1.418 31.9286 0
 888 1 2.127 33.1566 0
 889 1 4.254 31.9286 0
 890 1 3.545 33.1566 0
 891 1 5.672 31.9286 0
 892 1 6.381 33.1566 0
 893 1 8.508 31.9286 0
 894 1 7.799 33.1566 0
 895 1 9.926 31.9286 0
 896 1 10.635 33.1566 0
 897 1 12.762 31.9286 0
 898 1 12.053 33.1566 0
 899 1 14.18 31.9286 0
 900 1 14.889 33.1566 0
 901 1 17.016 31.9286 0
 902 1 16.307 33.1566 0
 903 1 18.434 31.9286 0
 904 1 19.143 33.1566 0
 905 1 21.27 31.9286 0
 906 1 20.561 33.1566 0
 907 1 22.688 31.9286 0
 908 1 23.397 33.1566 0
 909 1 25.524 31.9286 0
 910 1 24.815 33.1566 0
 911 1 26.942 31.9286 0
 912 1 27.651 33.1566 0
 913 1 29.778 31.9286 0
 914 1 29.069 33.1566 0
 915 1 31.196 31.9286 0
 916 1 31.905 33.1566 0
 917 1 34.032 31.9286 0
 918 1 33.323 33.1566 0
 919 1 35.45 31.9286 0
 920 1 36.159 33.1566 0
 921 1 38.286 31.9286 0
 922 1 37.577 33.1566 0
 923 1 39.704 31.9286 0
 924 1 40.413 33.1566 0
 925 1 42.54 31.9286 0
 926 1 41.831 33.1566 0
 927 1 43.958 31.9286 0
 928 1 44.667 33.1566 0
 929 1 46.794 31.9286 0
 930 1 46.085 33.1566 0
 931 1 48.212 31.9286 0
 932 1 48.921 33.1566 0
 933 1 51.048 31.9286 0
 934 1 50.339 33.1566 0
 935 1 52.466 31.9286 0
 936 1 53.175 33.1566 0
 937 1 55.302 31.9286 0
 938 1 54.593 33.1566 0
 939 1 56.72 31.9286 0
 940 1 57.429 33.1566 0
 941 1 59.556 31.9286 0
 942 1 58.847 33.1566 0
 943 1 60.974 31.9286 0
 944 1 61.683 33.1566 0
 945 1 63.81 31.9286 0
 946 1 63.101 33.1566 0
 947 1 65.228 31.9286 0
 948 1 65.937 33.1566 0
 949 1 68.064 31.9286 0
 950 1 67.355 33.1566 0
 951 1 69.482 31.9286 0
 952 1 70.191 33.1566 0
 953 1 0 34.3847 0
 954 1 -0.709 35.6127 0
 955 1 1.418 34.3847 0
 956 1 2.127 35.6127 0
 957 1 4.254 34.3847 0
 958 1 3.545 35.6127 0
 959 1 5.672 34.3847 0
 960 1 6.381 35.6127 0
 961 1 8.508 34.3847 0
 962 1 7.799 35.6127 0
 963 1 9.926 34.3847 0
 964 1 10.635 35.6127 0
 965 1 12.762 34.3847 0
 966 1 12.053 35.6127 0
 967 1 14.18 34.3847 0
 968 1 14.889 35.6127 0
 969 1 17.016 34.3847 0
 970 1 16.307 35.6127 0
 971 1 18.434 34.3847 0
 972 1 19.143 35.6127 0
 973 1 21.27 34.3847 0
 974 1 20.561 35.6127 0
 975 1 22.688 34.3847 0
 976 1 23.397 35.6127 0
 977 1 25.524 34.3847 0
 978 1 24.815 35.6127 0
 979 1 26.942 34.3847 0
 980 1 27.651 35.6127 0
 981 1 29.778 34.3847 0
 982 1 29.069 35.6127 0
 983 1 31.196 34.3847 0
 984 1 31.905 35.6127 0
 985 1 34.032 34.3847 0
 986 1 33.323 35.6127 0
 987 1 35.45 34.3847 0
 988 1 36.159 35.6127 0
 989 1 38.286 34.3847 0
 990 1 37.577 35.6127 0
 991 1 39.704 34.3847 0
 992 1 40.413 35.6127 0
 993 1 42.54 34.3847 0
 994 1 41.831 35.6127 0
 995 1 43.958 34.3847 0
 996 1 44.667 35.6127 0
 997 1 46.794 34.3847 0
 998 1 46.085 35.6127 0
 999 1 48.212 34.3847 0
 1000 1 48.921 35.6127 0
 1001 1 51.048 34.3847 0
 1002 1 50.339 35.6127 0
 1003 1 52.466 34.3847 0
 1004 1 53.175 35.6127 0
 1005 1 55.302 34.3847 0
 1006 1 54.593 35.6127 0
 1007 1 56.72 34.3847 0
 1008 1 57.429 35.6127 0
 1009 1 59.556 34.3847 0
 1010 1 58.847 35.6127 0
 1011 1 60.974 34.3847 0
 1012 1 61.683 35.6127 0
 1013 1 63.81 34.3847 0
 1014 1 63.101 35.6127 0
 1015 1 65.228 34.3847 0
 1016 1 65.937 35.6127 0
 1017 1 68.064 34.3847 0
 1018 1 67.355 35.6127 0
 1019 1 69.482 34.3847 0
 1020 1 70.191 35.6127 0
 1021 1 0 36.8407 0
 1022 1 -0.709 38.0687 0
 1023 1 1.418 36.8407 0
 1024 1 2.127 38.0687 0
 1025 1 4.254 36.8407 0
 1026 1 3.545 38.0687 0
 1027 1 5.672 36.8407 0
 1028 1 6.381 38.0687 0
 1029 1 8.508 36.8407 0
 1030 1 7.799 38.0687 0
 1031 1 9.926 36.8407 0
 1032 1 10.635 38.0687 0
 1033 1 12.762 36.8407 0
 1034 1 12.053 38.0687 0
 1035 1 14.18 36.8407 0
 1036 1 14.889 38.0687 0
 1037 1 17.016 36.8407 0
 1038 1 16.307 38.0687 0
 1039 1 18.434 36.8407 0
 1040 1 19.143 38.0687 0
 1041 1 21.27 36.8407 0
 1042 1 20.561 38.0687 0
 1043 1 22.688 36.8407 0
 1044 1 23.397 38.0687 0
 1045 1 25.524 36.8407 0
 1046 1 24.815 38.0687 0
 1047 1 26.942 36.8407 0
 1048 1 27.651 38.0687 0
 1049 1 29.778 36.8407 0
 1050 1 29.069 38.0687 0
 1051 1 31.196 36.8407 0
 1052 1 31.905 38.0687 0
 1053 1 34.032 36.8407 0
 1054 1 33.323 38.0687 0
 1055 1 35.45 36.8407 0
 1056 1 36.159 38.0687 0
 1057 1 38.286 36.8407 0
 1058 1 37.577 38.0687 0
 1059 1 39.704 36.8407 0
 1060 1 40.413 38.0687 0
 1061 1 42.54 36.8407 0
 1062 1 41.831 38.0687 0
 1063 1 43.958 36.8407 0
 1064 1 44.667 38.0687 0
 1065 1 46.794 36.8407 0
 1066 1 46.085 38.0687 0
 1067 1 48.212 36.8407 0
 1068 1 48.921 38.0687 0
 1069 1 51.048 36.8407 0
 1070 1 50.339 38.0687 0
 1071 1 52.466 36.8407 0
 1072 1 53.175 38.0687 0
 1073 1 55.302 36.8407 0
 1074 1 54.593 38.0687 0
 1075 1 56.72 36.8407 0
 1076 1 57.429 38.0687 0
 1077 1 59.556 36.8407 0
 1078 1 58.847 38.0687 0
 1079 1 60.974 36.8407 0
 1080 1 61.683 38.0687 0
 1081 1 63.81 36.8407 0
 1082 1 63.101 38.0687 0
 1083 1 65.228 36.8407 0
 1084 1 65.937 38.0687 0
 1085 1 68.064 36.8407 0
 1086 1 67.355 38.0687 0
 1087 1 69.482 36.8407 0
 1088 1 70.191 38.0687 0
 1089 1 0 39.2968 0
 1090 1 -0.709 40.5248 0
 1091 1 1.418 39.2968 0
 1092 1 2.127 40.5248 0
 1093 1 4.254 39.2968 0
 1094 1 3.545 40.5248 0
 1095 1 5.672 39.2968 0
 1096 1 6.381 40.5248 0
 1097 1 8.508 39.2968 0
 1098 1 7.799 40.5248 0
 1099 1 9.926 39.2968 0
 1100 1 10.635 40.5248 0
 1101 1 12.762 39.2968 0
 1102 1 12.053 40.5248 0
 1103 1 14.18 39.2968 0
 1104 1 14.889 40.5248 0
 1105 1 17.016 39.2968 0
 1106 1 16.307 40.5248 0
 1107 1 18.434 39.2968 0
 1108 1 19.143 40.5248 0
 1109 1 21.27 39.2968 0
 1110 1 20.561 40.5248 0
 1111 1 22.688 39.2968 0
 1112 1 23.397 40.5248 0
 1113 1 25.524 39.2968 0
 1114 1 24.815 40.5248 0
 1115 1 26.942 39.2968 0
 1116 1 27.651 40.5248 0
 1117 1 29.778 39.2968 0
 1118 1 29.069 40.5248 0
 1119 1 31.196 39.2968 0
 1120 1 31.905 40.5248 0
 1121 1 34.032 39.2968 0
 1122 1 33.323 40.5248 0
 1123 1 35.45 39.2968 0
 1124 1 36.159 40.5248 0
 1125 1 38.286 39.2968 0
 1126 1 37.577 40.5248 0
 1127 1 39.704 39.2968 0
 1128 1 40.413 40.5248 0
 1129 1 42.54 39.2968 0
 1130 1 41.831 40.5248 0
 1131 1 43.958 39.2968 0
 1132 1 44.667 40.5248 0
 1133 1 46.794 39.2968 0
 1134 1 46.085 40.5248 0
 1135 1 48.212 39.2968 0
 1136 1 48.921 40.5248 0
 1137 1 51.048 39.2968 0
 1138 1 50.339 40.5248 0
 1139 1 52.466 39.2968 0
 1140 1 53.175 40.5248 0
 1141 1 55.302 39.2968 0
 1142 1 54.593 40.5248 0
 1143 1 56.72 39.2968 0
 1144 1 57.429 40.5248 0
 1145 1 59.556 39.2968 0
 1146 1 58.847 40.5248 0
 1147 1 60.974 39.2968 0
 1148 1 61.683 40.5248 0
 1149 1 63.81 39.2968 0
 1150 1 63.101 40.5248 0
 1151 1 65.228 39.2968 0
 1152 1 65.937 40.5248 0
 1153 1 68.064 39.2968 0
 1154 1 67.355 40.5248 0
 1155 1 69.482 39.2968 0
 1156 1 70.191 40.5248 0
 1157 1 0 41.7528 0
 1158 1 -0.709 42.9808 0
 1159 1 1.418 41.7528 0
 1160 1 2.127 42.9808 0
 1161 1 4.254 41.7528 0
 1162 1 3.545 42.9808 0
 1163 1 5.672 41.7528 0
 1164 1 6.381 42.9808 0
 1165 1 8.508 41.7528 0
 1166 1 7.799 42.9808 0
 1167 1 9.926 41.7528 0
 1168 1 10.635 42.9808 0
 1169 1 12.762 41.7528 0
 1170 1 12.053 42.9808 0
 1171 1 14.18 41.7528 0
 1172 1 14.889 42.9808 0
 1173 1 17.016 41.7528 0
 1174 1 16.307 42.9808 0
 1175 1 18.434 41.7528 0
 1176 1 19.143 42.9808 0
 1177 1 21.27 41.7528 0
 1178 1 20.561 42.9808 0
 1179 1 22.688 41.7528 0
 1180 1 23.397 42.9808 0
 1181 1 25.524 41.7528 0
 1182 1 24.815 42.9808 0
 1183 1 26.942 41.7528 0
 1184 1 27.651 42.9808 0
 1185 1 29.778 41.7528 0
 1186 1 29.069 42.9808 0
 1187 1 31.196 41.7528 0
 1188 1 31.905 42.9808 0
 1189 1 34.032 41.7528 0
 1190 1 33.323 42.9808 0
 1191 1 35.45 41.7528 0
 1192 1 36.159 42.9808 0
 1193 1 38.286 41.7528 0
 1194 1 37.577 42.9808 0
 1195 1 39.704 41.7528 0
 1196 1 40.413 42.9808 0
 1197 1 42.54 41.7528 0
 1198 1 41.831 42.9808 0
 1199 1 43.958 41.7528 0
 1200 1 44.667 42.9808 0
 1201 1 46.794 41.7528 0
 1202 1 46.085 42.9808 0
 1203 1 48.212 41.7528 0
 1204 1 48.921 42.9808 0
 1205 1 51.048 41.7528 0
 1206 1 50.339 42.9808 0
 1207 1 52.466 41.7528 0
 1208 1 53.175 42.9808 0
 1209 1 55.302 41.7528 0
 1210 1 54.593 42.9808 0
 1211 1 56.72 41.7528 0
 1212 1 57.429 42.9808 0
 1213 1 59.556 41.7528 0
 1214 1 58.847 42.9808 0
 1215 1 60.974 41.7528 0
 1216 1 61.683 42.9808 0
 1217 1 63.81 41.7528 0
 1218 1 63.101 42.9808 0
 1219 1 65.228 41.7528 0
 1220 1 65.937 42.9808 0
 1221 1 68.064 41.7528 0
 1222 1 67.355 42.9808 0
 1223 1 69.482 41.7528 0
 1224 1 70.191 42.9808 0
 1225 1 0 44.2089 0
 1226 1 -0.709 45.4369 0
 1227 1 1.418 44.2089 0
 1228 1 2.127 45.4369 0
 1229 1 4.254 44.2089 0
 1230 1 3.545 45.4369 0
 1231 1 5.672 44.2089 0
 1232 1 6.381 45.4369 0
 1233 1 8.508 44.2089 0
 1234 1 7.799 45.4369 0
 1235 1 9.926 44.2089 0
 1236 1 10.635 45.4369 0
 1237 1 12.762 44.2089 0
 1238 1 12.053 45.4369 0
 1239 1 14.18 44.2089 0
 1240 1 14.889 45.4369 0
 1241 1 17.016 44.2089 0
 1242 1 16.307 45.4369 0
 1243 1 18.434 44.2089 0
 1244 1 19.143 45.4369 0
 1245 1 21.27 44.2089 0
 1246 1 20.561 45.4369 0
 1247 1 22.688 44.2089 0
 1248 1 23.397 45.4369 0
 1249 1 25.524 44.2089 0
 1250 1 24.815 45.4369 0
 1251 1 26.942 44.2089 0
 1252 1 27.651 45.4369 0
 1253 1 29.778 44.2089 0
 1254 1 29.069 45.4369 0
 1255 1 31.196 44.2089 0
 1256 1 31.905 45.4369 0
 1257 1 34.032 44.2089 0
 1258 1 33.323 45.4369 0
 1259 1 35.45 44.2089 0
 1260 1 36.159 45.4369 0
 1261 1 38.286 44.2089 0
 1262 1 37.577 45.4369 0
 1263 1 39.704 44.2089 0