ITEM: TIMESTEP
0
ITEM: NUMBER OF ATOMS
8928
ITEM: BOX BOUNDS ss ss ss
-0.709 151.017
0 151.047
0 0
ITEM: ATOMS id type xu yu zu
 1 1 0 0 0
 2 1 -0.709 1.22802 0
 3 1 1.418 0 0
 4 1 2.127 1.22802 0
 5 1 4.254 0 0
 6 1 3.545 1.22802 0
 7 1 5.672 0 0
 8 1 6.381 1.22802 0
 9 1 8.508 0 0
 10 1 7.799 1.22802 0
 11 1 9.926 0 0
 12 1 10.635 1.22802 0
 13 1 12.762 0 0
 14 1 12.053 1.22802 0
 15 1 14.18 0 0
 16 1 14.889 1.22802 0
 17 1 17.016 0 0
 18 1 16.307 1.22802 0
 19 1 18.434 0 0
 20 1 19.143 1.22802 0
 21 1 21.27 0 0
 22 1 20.561 1.22802 0
 23 1 22.688 0 0
 24 1 23.397 1.22802 0
 25 1 25.524 0 0
 26 1 24.815 1.22802 0
 27 1 26.942 0 0
 28 1 27.651 1.22802 0
 29 1 29.778 0 0
 30 1 29.069 1.22802 0
 31 1 31.196 0 0
 32 1 31.905 1.22802 0
 33 1 34.032 0 0
 34 1 33.323 1.22802 0
 35 1 35.45 0 0
 36 1 36.159 1.22802 0
 37 1 38.286 0 0
 38 1 37.577 1.22802 0
 39 1 39.704 0 0
 40 1 40.413 1.22802 0
 41 1 42.54 0 0
 42 1 41.831 1.22802 0
 43 1 43.958 0 0
 44 1 44.667 1.22802 0
 45 1 46.794 0 0
 46 1 46.085 1.22802 0
 47 1 48.212 0 0
 48 1 48.921 1.22802 0
 49 1 51.048 0 0
 50 1 50.339 1.22802 0
 51 1 52.466 0 0
 52 1 53.175 1.22802 0
 53 1 55.302 0 0
 54 1 54.593 1.22802 0
 55 1 56.72 0 0
 56 1 57.429 1.22802 0
 57 1 59.556 0 0
 58 1 58.847 1.22802 0
 59 1 60.974 0 0
 60 1 61.683 1.22802 0
 61 1 63.81 0 0
 62 1 63.101 1.22802 0
 63 1 65.228 0 0
 64 1 65.937 1.22802 0
 65 1 68.064 0 0
 66 1 67.355 1.22802 0
 67 1 69.482 0 0
 68 1 70.191 1.22802 0
 69 1 72.318 0 0
 70 1 71.609 1.22802 0
 71 1 73.736 0 0
 72 1 74.445 1.22802 0
 73 1 76.572 0 0
 74 1 75.863 1.22802 0
 75 1 77.99 0 0
 76 1 78.699 1.22802 0
 77 1 80.826 0 0
 78 1 80.117 1.22802 0
 79 1 82.244 0 0
 80 1 82.953 1.22802 0
 81 1 85.08 0 0
 82 1 84.371 1.22802 0
 83 1 86.498 0 0
 84 1 87.207 1.22802 0
 85 1 89.334 0 0
 86 1 88.625 1.22802 0
 87 1 90.752 0 0
 88 1 91.461 1.22802 0
 89 1 93.588 0 0
 90 1 92.879 1.22802 0
 91 1 95.006 0 0
 92 1 95.715 1.22802 0
 93 1 97.842 0 0
 94 1 97.133 1.22802 0
 95 1 99.26 0 0
 96 1 99.969 1.22802 0
 97 1 102.096 0 0
 98 1 101.387 1.22802 0
 99 1 103.514 0 0
 100 1 104.223 1.22802 0
 101 1 106.35 0 0
 102 1 105.641 1.22802 0
 103 1 107.768 0 0
 104 1 108.477 1.22802 0
 105 1 110.604 0 0
 106 1 109.895 1.22802 0
 107 1 112.022 0 0
 108 1 112.731 1.22802 0
 109 1 114.858 0 0
 110 1 114.149 1.22802 0
 111 1 116.276 0 0
 112 1 116.985 1.22802 0
 113 1 119.112 0 0
 114 1 118.403 1.22802 0
 115 1 120.53 0 0
 116 1 121.239 1.22802 0
 117 1 123.366 0 0
 118 1 122.657 1.22802 0
 119 1 124.784 0 0
 120 1 125.493 1.22802 0
 121 1 127.62 0 0
 122 1 126.911 1.22802 0
 123 1 129.038 0 0
 124 1 129.747 1.22802 0
 125 1 131.874 0 0
 126 1 131.165 1.22802 0
 127 1 133.292 0 0
 128 1 134.001 1.22802 0
 129 1 136.128 0 0
 130 1 135.419 1.22802 0
 131 1 137.546 0 0
 132 1 138.255 1.22802 0
 133 1 140.382 0 0
 134 1 139.673 1.22802 0
 135 1 141.8 0 0
 136 1 142.509 1.22802 0
 137 1 144.636 0 0
 138 1 143.927 1.22802 0
 139 1 146.054 0 0
 140 1 146.763 1.22802 0
 141 1 148.89 0 0
 142 1 148.181 1.22802 0
 143 1 150.308 0 0
 144 1 151.017 1.22802 0
 145 1 0 2.45605 0
 146 1 -0.709 3.68407 0
 147 1 1.418 2.45605 0
 148 1 2.127 3.68407 0
 149 1 4.254 2.45605 0
 150 1 3.545 3.68407 0
 151 1 5.672 2.45605 0
 152 1 6.381 3.68407 0
 153 1 8.508 2.45605 0
 154 1 7.799 3.68407 0
 155 1 9.926 2.45605 0
 156 1 10.635 3.68407 0
 157 1 12.762 2.45605 0
 158 1 12.053 3.68407 0
 159 1 14.18 2.45605 0
 160 1 14.889 3.68407 0
 161 1 17.016 2.45605 0
 162 1 16.307 3.68407 0
 163 1 18.434 2.45605 0
 164 1 19.143 3.68407 0
 165 1 21.27 2.45605 0
 166 1 20.561 3.68407 0
 167 1 22.688 2.45605 0
 168 1 23.397 3.68407 0
 169 1 25.524 2.45605 0
 170 1 24.815 3.68407 0
 171 1 26.942 2.45605 0
 172 1 27.651 3.68407 0
 173 1 29.778 2.45605 0
 174 1 29.069 3.68407 0
 175 1 31.196 2.45605 0
 176 1 31.905 3.68407 0
 177 1 34.032 2.45605 0
 178 1 33.323 3.68407 0
 179 1 35.45 2.45605 0
 180 1 36.159 3.68407 0
 181 1 38.286 2.45605 0
 182 1 37.577 3.68407 0
 183 1 39.704 2.45605 0
 184 1 40.413 3.68407 0
 185 1 42.54 2.45605 0
 186 1 41.831 3.68407 0
 187 1 43.958 2.45605 0
 188 1 44.667 3.68407 0
 189 1 46.794 2.45605 0
 190 1 46.085 3.68407 0
 191 1 48.212 2.45605 0
 192 1 48.921 3.68407 0
 193 1 51.048 2.45605 0
 194 1 50.339 3.68407 0
 195 1 52.466 2.45605 0
 196 1 53.175 3.68407 0
 197 1 55.302 2.45605 0
 198 1 54.593 3.68407 0
 199 1 56.72 2.45605 0
 200 1 57.429 3.68407 0
 201 1 59.556 2.45605 0
 202 1 58.847 3.68407 0
 203 1 60.974 2.45605 0
 204 1 61.683 3.68407 0
 205 1 63.81 2.45605 0
 206 1 63.101 3.68407 0
 207 1 65.228 2.45605 0
 208 1 65.937 3.68407 0
 209 1 68.064 2.45605 0
 210 1 67.355 3.68407 0
 211 1 69.482 2.45605 0
 212 1 70.191 3.68407 0
 213 1 72.318 2.45605 0
 214 1 71.609 3.68407 0
 215 1 73.736 2.45605 0
 216 1 74.445 3.68407 0
 217 1 76.572 2.45605 0
 218 1 75.863 3.68407 0
 219 1 77.99 2.45605 0
 220 1 78.699 3.68407 0
 221 1 80.826 2.45605 0
 222 1 80.117 3.68407 0
 223 1 82.244 2.45605 0
 224 1 82.953 3.68407 0
 225 1 85.08 2.45605 0
 226 1 84.371 3.68407 0
 227 1 86.498 2.45605 0
 228 1 87.207 3.68407 0
 229 1 89.334 2.45605 0
 230 1 88.625 3.68407 0
 231 1 90.752 2.45605 0
 232 1 91.461 3.68407 0
 233 1 93.588 2.45605 0
 234 1 92.879 3.68407 0
 235 1 95.006 2.45605 0
 236 1 95.715 3.68407 0
 237 1 97.842 2.45605 0
 238 1 97.133 3.68407 0
 239 1 99.26 2.45605 0
 240 1 99.969 3.68407 0
 241 1 102.096 2.45605 0
 242 1 101.387 3.68407 0
 243 1 103.514 2.45605 0
 244 1 104.223 3.68407 0
 245 1 106.35 2.45605 0
 246 1 105.641 3.68407 0
 247 1 107.768 2.45605 0
 248 1 108.477 3.68407 0
 249 1 110.604 2.45605 0
 250 1 109.895 3.68407 0
 251 1 112.022 2.45605 0
 252 1 112.731 3.68407 0
 253 1 114.858 2.45605 0
 254 1 114.149 3.68407 0
 255 1 116.276 2.45605 0
 256 1 116.985 3.68407 0
 257 1 119.112 2.45605 0
 258 1 118.403 3.68407 0
 259 1 120.53 2.45605 0
 260 1 121.239 3.68407 0
 261 1 123.366 2.45605 0
 262 1 122.657 3.68407 0
 263 1 124.784 2.45605 0
 264 1 125.493 3.68407 0
 265 1 127.62 2.45605 0
 266 1 126.911 3.68407 0
 267 1 129.038 2.45605 0
 268 1 129.747 3.68407 0
 269 1 131.874 2.45605 0
 270 1 131.165 3.68407 0
 271 1 133.292 2.45605 0
 272 1 134.001 3.68407 0
 273 1 136.128 2.45605 0
 274 1 135.419 3.68407 0
 275 1 137.546 2.45605 0
 276 1 138.255 3.68407 0
 277 1 140.382 2.45605 0
 278 1 139.673 3.68407 0
 279 1 141.8 2.45605 0
 280 1 142.509 3.68407 0
 281 1 144.636 2.45605 0
 282 1 143.927 3.68407 0
 283 1 146.054 2.45605 0
 284 1 146.763 3.68407 0
 285 1 148.89 2.45605 0
 286 1 148.181 3.68407 0
 287 1 150.308 2.45605 0
 288 1 151.017 3.68407 0
 289 1 0 4.9121 0
 290 1 -0.709 6.14012 0
 291 1 1.418 4.9121 0
 292 1 2.127 6.14012 0
 293 1 4.254 4.9121 0
 294 1 3.545 6.14012 0
 295 1 5.672 4.9121 0
 296 1 6.381 6.14012 0
 297 1 8.508 4.9121 0
 298 1 7.799 6.14012 0
 299 1 9.926 4.9121 0
 300 1 10.635 6.14012 0
 301 1 12.762 4.9121 0
 302 1 12.053 6.14012 0
 303 1 14.18 4.9121 0
 304 1 14.889 6.14012 0
 305 1 17.016 4.9121 0
 306 1 16.307 6.14012 0
 307 1 18.434 4.9121 0
 308 1 19.143 6.14012 0
 309 1 21.27 4.9121 0
 310 1 20.561 6.14012 0
 311 1 22.688 4.9121 0
 312 1 23.397 6.14012 0
 313 1 25.524 4.9121 0
 314 1 24.815 6.14012 0
 315 1 26.942 4.9121 0
 316 1 27.651 6.14012 0
 317 1 29.778 4.9121 0
 318 1 29.069 6.14012 0
 319 1 31.196 4.9121 0
 320 1 31.905 6.14012 0
 321 1 34.032 4.9121 0
 322 1 33.323 6.14012 0
 323 1 35.45 4.9121 0
 324 1 36.159 6.14012 0
 325 1 38.286 4.9121 0
 326 1 37.577 6.14012 0
 327 1 39.704 4.9121 0
 328 1 40.413 6.14012 0
 329 1 42.54 4.9121 0
 330 1 41.831 6.14012 0
 331 1 43.958 4.9121 0
 332 1 44.667 6.14012 0
 333 1 46.794 4.9121 0
 334 1 46.085 6.14012 0
 335 1 48.212 4.9121 0
 336 1 48.921 6.14012 0
 337 1 51.048 4.9121 0
 338 1 50.339 6.14012 0
 339 1 52.466 4.9121 0
 340 1 53.175 6.14012 0
 341 1 55.302 4.9121 0
 342 1 54.593 6.14012 0
 343 1 56.72 4.9121 0
 344 1 57.429 6.14012 0
 345 1 59.556 4.9121 0
 346 1 58.847 6.14012 0
 347 1 60.974 4.9121 0
 348 1 61.683 6.14012 0
 349 1 63.81 4.9121 0
 350 1 63.101 6.14012 0
 351 1 65.228 4.9121 0
 352 1 65.937 6.14012 0
 353 1 68.064 4.9121 0
 354 1 67.355 6.14012 0
 355 1 69.482 4.9121 0
 356 1 70.191 6.14012 0
 357 1 72.318 4.9121 0
 358 1 71.609 6.14012 0
 359 1 73.736 4.9121 0
 360 1 74.445 6.14012 0
 361 1 76.572 4.9121 0
 362 1 75.863 6.14012 0
 363 1 77.99 4.9121 0
 364 1 78.699 6.14012 0
 365 1 80.826 4.9121 0
 366 1 80.117 6.14012 0
 367 1 82.244 4.9121 0
 368 1 82.953 6.14012 0
 369 1 85.08 4.9121 0
 370 1 84.371 6.14012 0
 371 1 86.498 4.9121 0
 372 1 87.207 6.14012 0
 373 1 89.334 4.9121 0
 374 1 88.625 6.14012 0
 375 1 90.752 4.9121 0
 376 1 91.461 6.14012 0
 377 1 93.588 4.9121 0
 378 1 92.879 6.14012 0
 379 1 95.006 4.9121 0
 380 1 95.715 6.14012 0
 381 1 97.842 4.9121 0
 382 1 97.133 6.14012 0
 383 1 99.26 4.9121 0
 384 1 99.969 6.14012 0
 385 1 102.096 4.9121 0
 386 1 101.387 6.14012 0
 387 1 103.514 4.9121 0
 388 1 104.223 6.14012 0
 389 1 106.35 4.9121 0
 390 1 105.641 6.14012 0
 391 1 107.768 4.9121 0
 392 1 108.477 6.14012 0
 393 1 110.604 4.9121 0
 394 1 109.895 6.14012 0
 395 1 112.022 4.9121 0
 396 1 112.731 6.14012 0
 397 1 114.858 4.9121 0
 398 1 114.149 6.14012 0
 399 1 116.276 4.9121 0
 400 1 116.985 6.14012 0
 401 1 119.112 4.9121 0
 402 1 118.403 6.14012 0
 403 1 120.53 4.9121 0
 404 1 121.239 6.14012 0
 405 1 123.366 4.9121 0
 406 1 122.657 6.14012 0
 407 1 124.784 4.9121 0
 408 1 125.493 6.14012 0
 409 1 127.62 4.9121 0
 410 1 126.911 6.14012 0
 411 1 129.038 4.9121 0
 412 1 129.747 6.14012 0
 413 1 131.874 4.9121 0
 414 1 131.165 6.14012 0
 415 1 133.292 4.9121 0
 416 1 134.001 6.14012 0
 417 1 136.128 4.9121 0
 418 1 135.419 6.14012 0
 419 1 137.546 4.9121 0
 420 1 138.255 6.14012 0
 421 1 140.382 4.9121 0
 422 1 139.673 6.14012 0
 423 1 141.8 4.9121 0
 424 1 142.509 6.14012 0
 425 1 144.636 4.9121 0
 426 1 143.927 6.14012 0
 427 1 146.054 4.9121 0
 428 1 146.763 6.14012 0
 429 1 148.89 4.9121 0
 430 1 148.181 6.14012 0
 431 1 150.308 4.9121 0
 432 1 151.017 6.14012 0
 433 1 0 7.36814 0
 434 1 -0.709 8.59617 0
 435 1 1.418 7.36814 0
 436 1 2.127 8.59617 0
 437 1 4.254 7.36814 0
 438 1 3.545 8.59617 0
 439 1 5.672 7.36814 0
 440 1 6.381 8.59617 0
 441 1 8.508 7.36814 0
 442 1 7.799 8.59617 0
 443 1 9.926 7.36814 0
 444 1 10.635 8.59617 0
 445 1 12.762 7.36814 0
 446 1 12.053 8.59617 0
 447 1 14.18 7.36814 0
 448 1 14.889 8.59617 0
 449 1 17.016 7.36814 0
 450 1 16.307 8.59617 0
 451 1 18.434 7.36814 0
 452 1 19.143 8.59617 0
 453 1 21.27 7.36814 0
 454 1 20.561 8.59617 0
 455 1 22.688 7.36814 0
 456 1 23.397 8.59617 0
 457 1 25.524 7.36814 0
 458 1 24.815 8.59617 0
 459 1 26.942 7.36814 0
 460 1 27.651 8.59617 0
 461 1 29.778 7.36814 0
 462 1 29.069 8.59617 0
 463 1 31.196 7.36814 0
 464 1 31.905 8.59617 0
 465 1 34.032 7.36814 0
 466 1 33.323 8.59617 0
 467 1 35.45 7.36814 0
 468 1 36.159 8.59617 0
 469 1 38.286 7.36814 0
 470 1 37.577 8.59617 0
 471 1 39.704 7.36814 0
 472 1 40.413 8.59617 0
 473 1 42.54 7.36814 0
 474 1 41.831 8.59617 0
 475 1 43.958 7.36814 0
 476 1 44.667 8.59617 0
 477 1 46.794 7.36814 0
 478 1 46.085 8.59617 0
 479 1 48.212 7.36814 0
 480 1 48.921 8.59617 0
 481 1 51.048 7.36814 0
 482 1 50.339 8.59617 0
 483 1 52.466 7.36814 0
 484 1 53.175 8.59617 0
 485 1 55.302 7.36814 0
 486 1 54.593 8.59617 0
 487 1 56.72 7.36814 0
 488 1 57.429 8.59617 0
 489 1 59.556 7.36814 0
 490 1 58.847 8.59617 0
 491 1 60.974 7.36814 0
 492 1 61.683 8.59617 0
 493 1 63.81 7.36814 0
 494 1 63.101 8.59617 0
 495 1 65.228 7.36814 0
 496 1 65.937 8.59617 0
 497 1 68.064 7.36814 0
 498 1 67.355 8.59617 0
 499 1 69.482 7.36814 0
 500 1 70.191 8.59617 0
 501 1 72.318 7.36814 0
 502 1 71.609 8.59617 0
 503 1 73.736 7.36814 0
 504 1 74.445 8.59617 0
 505 1 76.572 7.36814 0
 506 1 75.863 8.59617 0
 507 1 77.99 7.36814 0
 508 1 78.699 8.59617 0
 509 1 80.826 7.36814 0
 510 1 80.117 8.59617 0
 511 1 82.244 7.36814 0
 512 1 82.953 8.59617 0
 513 1 85.08 7.36814 0
 514 1 84.371 8.59617 0
 515 1 86.498 7.36814 0
 516 1 87.207 8.59617 0
 517 1 89.334 7.36814 0
 518 1 88.625 8.59617 0
 519 1 90.752 7.36814 0
 520 1 91.461 8.59617 0
 521 1 93.588 7.36814 0
 522 1 92.879 8.59617 0
 523 1 95.006 7.36814 0
 524 1 95.715 8.59617 0
 525 1 97.842 7.36814 0
 526 1 97.133 8.59617 0
 527 1 99.26 7.36814 0
 528 1 99.969 8.59617 0
 529 1 102.096 7.36814 0
 530 1 101.387 8.59617 0
 531 1 103.514 7.36814 0
 532 1 104.223 8.59617 0
 533 1 106.35 7.36814 0
 534 1 105.641 8.59617 0
 535 1 107.768 7.36814 0
 536 1 108.477 8.59617 0
 537 1 110.604 7.36814 0
 538 1 109.895 8.59617 0
 539 1 112.022 7.36814 0
 540 1 112.731 8.59617 0
 541 1 114.858 7.36814 0
 542 1 114.149 8.59617 0
 543 1 116.276 7.36814 0
 544 1 116.985 8.59617 0
 545 1 119.112 7.36814 0
 546 1 118.403 8.59617 0
 547 1 120.53 7.36814 0
 548 1 121.239 8.59617 0
 549 1 123.366 7.36814 0
 550 1 122.657 8.59617 0
 551 1 124.784 7.36814 0
 552 1 125.493 8.59617 0
 553 1 127.62 7.36814 0
 554 1 126.911 8.59617 0
 555 1 129.038 7.36814 0
 556 1 129.747 8.59617 0
 557 1 131.874 7.36814 0
 558 1 131.165 8.59617 0
 559 1 133.292 7.36814 0
 560 1 134.001 8.59617 0
 561 1 136.128 7.36814 0
 562 1 135.419 8.59617 0
 563 1 137.546 7.36814 0
 564 1 138.255 8.59617 0
 565 1 140.382 7.36814 0
 566 1 139.673 8.59617 0
 567 1 141.8 7.36814 0
 568 1 142.509 8.59617 0
 569 1 144.636 7.36814 0
 570 1 143.927 8.59617 0
 571 1 146.054 7.36814 0
 572 1 146.763 8.59617 0
 573 1 148.89 7.36814 0
 574 1 148.181 8.59617 0
 575 1 150.308 7.36814 0
 576 1 151.017 8.59617 0
 577 1 0 9.82419 0
 578 1 -0.709 11.0522 0
 579 1 1.418 9.82419 0
 580 1 2.127 11.0522 0
 581 1 4.254 9.82419 0
 582 1 3.545 11.0522 0
 583 1 5.672 9.82419 0
 584 1 6.381 11.0522 0
 585 1 8.508 9.82419 0
 586 1 7.799 11.0522 0
 587 1 9.926 9.82419 0
 588 1 10.635 11.0522 0
 589 1 12.762 9.82419 0
 590 1 12.053 11.0522 0
 591 1 14.18 9.82419 0
 592 1 14.889 11.0522 0
 593 1 17.016 9.82419 0
 594 1 16.307 11.0522 0
 595 1 18.434 9.82419 0
 596 1 19.143 11.0522 0
 597 1 21.27 9.82419 0
 598 1 20.561 11.0522 0
 599 1 22.688 9.82419 0
 600 1 23.397 11.0522 0
 601 1 25.524 9.82419 0
 602 1 24.815 11.0522 0
 603 1 26.942 9.82419 0
 604 1 27.651 11.0522 0
 605 1 29.778 9.82419 0
 606 1 29.069 11.0522 0
 607 1 31.196 9.82419 0
 608 1 31.905 11.0522 0
 609 1 34.032 9.82419 0
 610 1 33.323 11.0522 0
 611 1 35.45 9.82419 0
 612 1 36.159 11.0522 0
 613 1 38.286 9.82419 0
 614 1 37.577 11.0522 0
 615 1 39.704 9.82419 0
 616 1 40.413 11.0522 0
 617 1 42.54 9.82419 0
 618 1 41.831 11.0522 0
 619 1 43.958 9.82419 0
 620 1 44.667 11.0522 0
 621 1 46.794 9.82419 0
 622 1 46.085 11.0522 0
 623 1 48.212 9.82419 0
 624 1 48.921 11.0522 0
 625 1 51.048 9.82419 0
 626 1 50.339 11.0522 0
 627 1 52.466 9.82419 0
 628 1 53.175 11.0522 0
 629 1 55.302 9.82419 0
 630 1 54.593 11.0522 0
 631 1 56.72 9.82419 0
 632 1 57.429 11.0522 0
 633 1 59.556 9.82419 0
 634 1 58.847 11.0522 0
 635 1 60.974 9.82419 0
 636 1 61.683 11.0522 0
 637 1 63.81 9.82419 0
 638 1 63.101 11.0522 0
 639 1 65.228 9.82419 0
 640 1 65.937 11.0522 0
 641 1 68.064 9.82419 0
 642 1 67.355 11.0522 0
 643 1 69.482 9.82419 0
 644 1 70.191 11.0522 0
 645 1 72.318 9.82419 0
 646 1 71.609 11.0522 0
 647 1 73.736 9.82419 0
 648 1 74.445 11.0522 0
 649 1 76.572 9.82419 0
 650 1 75.863 11.0522 0
 651 1 77.99 9.82419 0
 652 1 78.699 11.0522 0
 653 1 80.826 9.82419 0
 654 1 80.117 11.0522 0
 655 1 82.244 9.82419 0
 656 1 82.953 11.0522 0
 657 1 85.08 9.82419 0
 658 1 84.371 11.0522 0
 659 1 86.498 9.82419 0
 660 1 87.207 11.0522 0
 661 1 89.334 9.82419 0
 662 1 88.625 11.0522 0
 663 1 90.752 9.82419 0
 664 1 91.461 11.0522 0
 665 1 93.588 9.82419 0
 666 1 92.879 11.0522 0
 667 1 95.006 9.82419 0
 668 1 95.715 11.0522 0
 669 1 97.842 9.82419 0
 670 1 97.133 11.0522 0
 671 1 99.26 9.82419 0
 672 1 99.969 11.0522 0
 673 1 102.096 9.82419 0
 674 1 101.387 11.0522 0
 675 1 103.514 9.82419 0
 676 1 104.223 11.0522 0
 677 1 106.35 9.82419 0
 678 1 105.641 11.0522 0
 679 1 107.768 9.82419 0
 680 1 108.477 11.0522 0
 681 1 110.604 9.82419 0
 682 1 109.895 11.0522 0
 683 1 112.022 9.82419 0
 684 1 112.731 11.0522 0
 685 1 114.858 9.82419 0
 686 1 114.149 11.0522 0
 687 1 116.276 9.82419 0
 688 1 116.985 11.0522 0
 689 1 119.112 9.82419 0
 690 1 118.403 11.0522 0
 691 1 120.53 9.82419 0
 692 1 121.239 11.0522 0
 693 1 123.366 9.82419 0
 694 1 122.657 11.0522 0
 695 1 124.784 9.82419 0
 696 1 125.493 11.0522 0
 697 1 127.62 9.82419 0
 698 1 126.911 11.0522 0
 699 1 129.038 9.82419 0
 700 1 129.747 11.0522 0
 701 1 131.874 9.82419 0
 702 1 131.165 11.0522 0
 703 1 133.292 9.82419 0
 704 1 134.001 11.0522 0
 705 1 136.128 9.82419 0
 706 1 135.419 11.0522 0
 707 1 137.546 9.82419 0
 708 1 138.255 11.0522 0
 709 1 140.382 9.82419 0
 710 1 139.673 11.0522 0
 711 1 141.8 9.82419 0
 712 1 142.509 11.0522 0
 713 1 144.636 9.82419 0
 714 1 143.927 11.0522 0
 715 1 146.054 9.82419 0
 716 1 146.763 11.0522 0
 717 1 148.89 9.82419 0
 718 1 148.181 11.0522 0
 719 1 150.308 9.82419 0
 720 1 151.017 11.0522 0
 721 1 0 12.2802 0
 722 1 -0.709 13.5083 0
 723 1 1.418 12.2802 0
 724 1 2.127 13.5083 0
 725 1 4.254 12.2802 0
 726 1 3.545 13.5083 0
 727 1 5.672 12.2802 0
 728 1 6.381 13.5083 0
 729 1 8.508 12.2802 0
 730 1 7.799 13.5083 0
 731 1 9.926 12.2802 0
 732 1 10.635 13.5083 0
 733 1 12.762 12.2802 0
 734 1 12.053 13.5083 0
 735 1 14.18 12.2802 0
 736 1 14.889 13.5083 0
 737 1 17.016 12.2802 0
 738 1 16.307 13.5083 0
 739 1 18.434 12.2802 0
 740 1 19.143 13.5083 0
 741 1 21.27 12.2802 0
 742 1 20.561 13.5083 0
 743 1 22.688 12.2802 0
 744 1 23.397 13.5083 0
 745 1 25.524 12.2802 0
 746 1 24.815 13.5083 0
 747 1 26.942 12.2802 0
 748 1 27.651 13.5083 0
 749 1 29.778 12.2802 0
 750 1 29.069 13.5083 0
 751 1 31.196 12.2802 0
 752 1 31.905 13.5083 0
 753 1 34.032 12.2802 0
 754 1 33.323 13.5083 0
 755 1 35.45 12.2802 0
 756 1 36.159 13.5083 0
 757 1 38.286 12.2802 0
 758 1 37.577 13.5083 0
 759 1 39.704 12.2802 0
 760 1 40.413 13.5083 0
 761 1 42.54 12.2802 0
 762 1 41.831 13.5083 0
 763 1 43.958 12.2802 0
 764 1 44.667 13.5083 0
 765 1 46.794 12.2802 0
 766 1 46.085 13.5083 0
 767 1 48.212 12.2802 0
 768 1 48.921 13.5083 0
 769 1 51.048 12.2802 0
 770 1 50.339 13.5083 0
 771 1 52.466 12.2802 0
 772 1 53.175 13.5083 0
 773 1 55.302 12.2802 0
 774 1 54.593 13.5083 0
 775 1 56.72 12.2802 0
 776 1 57.429 13.5083 0
 777 1 59.556 12.2802 0
 778 1 58.847 13.5083 0
 779 1 60.974 12.2802 0
 780 1 61.683 13.5083 0
 781 1 63.81 12.2802 0
 782 1 63.101 13.5083 0
 783 1 65.228 12.2802 0
 784 1 65.937 13.5083 0
 785 1 68.064 12.2802 0
 786 1 67.355 13.5083 0
 787 1 69.482 12.2802 0
 788 1 70.191 13.5083 0
 789 1 72.318 12.2802 0
 790 1 71.609 13.5083 0
 791 1 73.736 12.2802 0
 792 1 74.445 13.5083 0
 793 1 76.572 12.2802 0
 794 1 75.863 13.5083 0
 795 1 77.99 12.2802 0
 796 1 78.699 13.5083 0
 797 1 80.826 12.2802 0
 798 1 80.117 13.5083 0
 799 1 82.244 12.2802 0
 800 1 82.953 13.5083 0
 801 1 85.08 12.2802 0
 802 1 84.371 13.5083 0
 803 1 86.498 12.2802 0
 804 1 87.207 13.5083 0
 805 1 89.334 12.2802 0
 806 1 88.625 13.5083 0
 807 1 90.752 12.2802 0
 808 1 91.461 13.5083 0
 809 1 93.588 12.2802 0
 810 1 92.879 13.5083 0
 811 1 95.006 12.2802 0
 812 1 95.715 13.5083 0
 813 1 97.842 12.2802 0
 814 1 97.133 13.5083 0
 815 1 99.26 12.2802 0
 816 1 99.969 13.5083 0
 817 1 102.096 12.2802 0
 818 1 101.387 13.5083 0
 819 1 103.514 12.2802 0
 820 1 104.223 13.5083 0
 821 1 106.35 12.2802 0
 822 1 105.641 13.5083 0
 823 1 107.768 12.2802 0
 824 1 108.477 13.5083 0
 825 1 110.604 12.2802 0
 826 1 109.895 13.5083 0
 827 1 112.022 12.2802 0
 828 1 112.731 13.5083 0
 829 1 114.858 12.2802 0
 830 1 114.149 13.5083 0
 831 1 116.276 12.2802 0
 832 1 116.985 13.5083 0
 833 1 119.112 12.2802 0
 834 1 118.403 13.5083 0
 835 1 120.53 12.2802 0
 836 1 121.239 13.5083 0
 837 1 123.366 12.2802 0
 838 1 122.657 13.5083 0
 839 1 124.784 12.2802 0
 840 1 125.493 13.5083 0
 841 1 127.62 12.2802 0
 842 1 126.911 13.5083 0
 843 1 129.038 12.2802 0
 844 1 129.747 13.5083 0
 845 1 131.874 12.2802 0
 846 1 131.165 13.5083 0
 847 1 133.292 12.2802 0
 848 1 134.001 13.5083 0
 849 1 136.128 12.2802 0
 850 1 135.419 13.5083 0
 851 1 137.546 12.2802 0
 852 1 138.255 13.5083 0
 853 1 140.382 12.2802 0
 854 1 139.673 13.5083 0
 855 1 141.8 12.2802 0
 856 1 142.509 13.5083 0
 857 1 144.636 12.2802 0
 858 1 143.927 13.5083 0
 859 1 146.054 12.2802 0
 860 1 146.763 13.5083 0
 861 1 148.89 12.2802 0
 862 1 148.181 13.5083 0
 863 1 150.308 12.2802 0
 864 1 151.017 13.5083 0
 865 1 0 14.7363 0
 866 1 -0.709 15.9643 0
 867 1 1.418 14.7363 0
 868 1 2.127 15.9643 0
 869 1 4.254 14.7363 0
 870 1 3.545 15.9643 0
 871 1 5.672 14.7363 0
 872 1 6.381 15.9643 0
 873 1 8.508 14.7363 0
 874 1 7.799 15.9643 0
 875 1 9.926 14.7363 0
 876 1 10.635 15.9643 0
 877 1 12.762 14.7363 0
 878 1 12.053 15.9643 0
 879 1 14.18 14.7363 0
 880 1 14.889 15.9643 0
 881 1 17.016 14.7363 0
 882 1 16.307 15.9643 0
 883 1 18.434 14.7363 0
 884 1 19.143 15.9643 0
 885 1 21.27 14.7363 0
 886 1 20.561 15.9643 0
 887 1 22.688 14.7363 0
 888 1 23.397 15.9643 0
 889 1 25.524 14.7363 0
 890 1 24.815 15.9643 0
 891 1 26.942 14.7363 0
 892 1 27.651 15.9643 0
 893 1 29.778 14.7363 0
 894 1 29.069 15.9643 0
 895 1 31.196 14.7363 0
 896 1 31.905 15.9643 0
 897 1 34.032 14.7363 0
 898 1 33.323 15.9643 0
 899 1 35.45 14.7363 0
 900 1 36.159 15.9643 0
 901 1 38.286 14.7363 0
 902 1 37.577 15.9643 0
 903 1 39.704 14.7363 0
 904 1 40.413 15.9643 0
 905 1 42.54 14.7363 0
 906 1 41.831 15.9643 0
 907 1 43.958 14.7363 0
 908 1 44.667 15.9643 0
 909 1 46.794 14.7363 0
 910 1 46.085 15.9643 0
 911 1 48.212 14.7363 0
 912 1 48.921 15.9643 0
 913 1 51.048 14.7363 0
 914 1 50.339 15.9643 0
 915 1 52.466 14.7363 0
 916 1 53.175 15.9643 0
 917 1 55.302 14.7363 0
 918 1 54.593 15.9643 0
 919 1 56.72 14.7363 0
 920 1 57.429 15.9643 0
 921 1 59.556 14.7363 0
 922 1 58.847 15.9643 0
 923 1 60.974 14.7363 0
 924 1 61.683 15.9643 0
 925 1 63.81 14.7363 0
 926 1 63.101 15.9643 0
 927 1 65.228 14.7363 0
 928 1 65.937 15.9643 0
 929 1 68.064 14.7363 0
 930 1 67.355 15.9643 0
 931 1 69.482 14.7363 0
 932 1 70.191 15.9643 0
 933 1 72.318 14.7363 0
 934 1 71.609 15.9643 0
 935 1 73.736 14.7363 0
 936 1 74.445 15.9643 0
 937 1 76.572 14.7363 0
 938 1 75.863 15.9643 0
 939 1 77.99 14.7363 0
 940 1 78.699 15.9643 0
 941 1 80.826 14.7363 0
 942 1 80.117 15.9643 0
 943 1 82.244 14.7363 0
 944 1 82.953 15.9643 0
 945 1 85.08 14.7363 0
 946 1 84.371 15.9643 0
 947 1 86.498 14.7363 0
 948 1 87.207 15.9643 0
 949 1 89.334 14.7363 0
 950 1 88.625 15.9643 0
 951 1 90.752 14.7363 0
 952 1 91.461 15.9643 0
 953 1 93.588 14.7363 0
 954 1 92.879 15.9643 0
 955 1 95.006 14.7363 0
 956 1 95.715 15.9643 0
 957 1 97.842 14.7363 0
 958 1 97.133 15.9643 0
 959 1 99.26 14.7363 0
 960 1 99.969 15.9643 0
 961 1 102.096 14.7363 0
 962 1 101.387 15.9643 0
 963 1 103.514 14.7363 0
 964 1 104.223 15.9643 0
 965 1 106.35 14.7363 0
 966 1 105.641 15.9643 0
 967 1 107.768 14.7363 0
 968 1 108.477 15.9643 0
 969 1 110.604 14.7363 0
 970 1 109.895 15.9643 0
 971 1 112.022 14.7363 0
 972 1 112.731 15.9643 0
 973 1 114.858 14.7363 0
 974 1 114.149 15.9643 0
 975 1 116.276 14.7363 0
 976 1 116.985 15.9643 0
 977 1 119.112 14.7363 0
 978 1 118.403 15.9643 0
 979 1 120.53 14.7363 0
 980 1 121.239 15.9643 0
 981 1 123.366 14.7363 0
 982 1 122.657 15.9643 0
 983 1 124.784 14.7363 0
 984 1 125.493 15.9643 0
 985 1 127.62 14.7363 0
 986 1 126.911 15.9643 0
 987 1 129.038 14.7363 0
 988 1 129.747 15.9643 0
 989 1 131.874 14.7363 0
 990 1 131.165 15.9643 0
 991 1 133.292 14.7363 0
 992 1 134.001 15.9643 0
 993 1 136.128 14.7363 0
 994 1 135.419 15.9643 0
 995 1 137.546 14.7363 0
 996 1 138.255 15.9643 0
 997 1 140.382 14.7363 0
 998 1 139.673 15.9643 0
 999 1 141.8 14.7363 0
 1000 1 142.509 15.9643 0
 1001 1 144.636 14.7363 0
 1002 1 143.927 15.9643 0
 1003 1 146.054 14.7363 0
 1004 1 146.763 15.9643 0
 1005 1 148.89 14.7363 0
 1006 1 148.181 15.9643 0
 1007 1 150.308 14.7363 0
 1008 1 151.017 15.9643 0
 1009 1 0 17.1923 0
 1010 1 -0.709 18.4204 0
 1011 1 1.418 17.1923 0
 1012 1 2.127 18.4204 0
 1013 1 4.254 17.1923 0
 1014 1 3.545 18.4204 0
 1015 1 5.672 17.1923 0
 1016 1 6.381 18.4204 0
 1017 1 8.508 17.1923 0
 1018 1 7.799 18.4204 0
 1019 1 9.926 17.1923 0
 1020 1 10.635 18.4204 0
 1021 1 12.762 17.1923 0
 1022 1 12.053 18.4204 0
 1023 1 14.18 17.1923 0
 1024 1 14.889 18.4204 0
 1025 1 17.016 17.1923 0
 1026 1 16.307 18.4204 0
 1027 1 18.434 17.1923 0
 1028 1 19.143 18.4204 0
 1029 1 21.27 17.1923 0
 1030 1 20.561 18.4204 0
 1031 1 22.688 17.1923 0
 1032 1 23.397 18.4204 0
 1033 1 25.524 17.1923 0
 1034 1 24.815 18.4204 0
 1035 1 26.942 17.1923 0
 1036 1 27.651 18.4204 0
 1037 1 29.778 17.1923 0
 1038 1 29.069 18.4204 0
 1039 1 31.196 17.1923 0
 1040 1 31.905 18.4204 0
 1041 1 34.032 17.1923 0
 1042 1 33.323 18.4204 0
 1043 1 35.45 17.1923 0
 1044 1 36.159 18.4204 0
 1045 1 38.286 17.1923 0
 1046 1 37.577 18.4204 0
 1047 1 39.704 17.1923 0
 1048 1 40.413 18.4204 0
 1049 1 42.54 17.1923 0
 1050 1 41.831 18.4204 0
 1051 1 43.958 17.1923 0
 1052 1 44.667 18.4204 0
 1053 1 46.794 17.1923 0
 1054 1 46.085 18.4204 0
 1055 1 48.212 17.1923 0
 1056 1 48.921 18.4204 0
 1057 1 51.048 17.1923 0
 1058 1 50.339 18.4204 0
 1059 1 52.466 17.1923 0
 1060 1 53.175 18.4204 0
 1061 1 55.302 17.1923 0
 1062 1 54.593 18.4204 0
 1063 1 56.72 17.1923 0
 1064 1 57.429 18.4204 0
 1065 1 59.556 17.1923 0
 1066 1 58.847 18.4204 0
 1067 1 60.974 17.1923 0
 1068 1 61.683 18.4204 0
 1069 1 63.81 17.1923 0
 1070 1 63.101 18.4204 0
 1071 1 65.228 17.1923 0
 1072 1 65.937 18.4204 0
 1073 1 68.064 17.1923 0
 1074 1 67.355 18.4204 0
 1075 1 69.482 17.1923 0
 1076 1 70.191 18.4204 0
 1077 1 72.318 17.1923 0
 1078 1 71.609 18.4204 0
 1079 1 73.736 17.1923 0
 1080 1 74.445 18.4204 0
 1081 1 76.572 17.1923 0
 1082 1 75.863 18.4204 0
 1083 1 77.99 17.1923 0
 1084 1 78.699 18.4204 0
 1085 1 80.826 17.1923 0
 1086 1 80.117 18.4204 0
 1087 1 82.244 17.1923 0
 1088 1 82.953 18.4204 0
 1089 1 85.08 17.1923 0
 1090 1 84.371 18.4204 0
 1091 1 86.498 17.1923 0
 1092 1 87.207 18.4204 0
 1093 1 89.334 17.1923 0
 1094 1 88.625 18.4204 0
 1095 1 90.752 17.1923 0
 1096 1 91.461 18.4204 0
 1097 1 93.588 17.1923 0
 1098 1 92.879 18.4204 0
 1099 1 95.006 17.1923 0
 1100 1 95.715 18.4204 0
 1101 1 97.842 17.1923 0
 1102 1 97.133 18.4204 0
 1103 1 99.26 17.1923 0
 1104 1 99.969 18.4204 0
 1105 1 102.096 17.1923 0
 1106 1 101.387 18.4204 0
 1107 1 103.514 17.1923 0
 1108 1 104.223 18.4204 0
 1109 1 106.35 17.1923 0
 1110 1 105.641 18.4204 0
 1111 1 107.768 17.1923 0
 1112 1 108.477 18.4204 0
 1113 1 110.604 17.1923 0
 1114 1 109.895 18.4204 0
 1115 1 112.022 17.1923 0
 1116 1 112.731 18.4204 0
 1117 1 114.858 17.1923 0
 1118 1 114.149 18.4204 0
 1119 1 116.276 17.1923 0
 1120 1 116.985 18.4204 0
 1121 1 119.112 17.1923 0
 1122 1 118.403 18.4204 0
 1123 1 120.53 17.1923 0
 1124 1 121.239 18.4204 0
 1125 1 123.366 17.1923 0
 1126 1 122.657 18.4204 0
 1127 1 124.784 17.1923 0
 1128 1 125.493 18.4204 0
 1129 1 127.62 17.1923 0
 1130 1 126.911 18.4204 0
 1131 1 129.038 17.1923 0
 1132 1 129.747 18.4204 0
 1133 1 131.874 17.1923 0
 1134 1 131.165 18.4204 0
 1135 1 133.292 17.1923 0
 1136 1 134.001 18.4204 0
 1137 1 136.128 17.1923 0
 1138 1 135.419 18.4204 0
 1139 1 137.546 17.1923 0
 1140 1 138.255 18.4204 0
 1141 1 140.382 17.1923 0
 1142 1 139.673 18.4204 0
 1143 1 141.8 17.1923 0
 1144 1 142.509 18.4204 0
 1145 1 144.636 17.1923 0
 1146 1 143.927 18.4204 0
 1147 1 146.054 17.1923 0
 1148 1 146.763 18.4204 0
 1149 1 148.89 17.1923 0
 1150 1 148.181 18.4204 0
 1151 1 150.308 17.1923 0
 1152 1 151.017 18.4204 0
 1153 1 0 19.6484 0
 1154 1 -0.709 20.8764 0
 1155 1 1.418 19.6484 0
 1156 1 2.127 20.8764 0
 1157 1 4.254 19.6484 0
 1158 1 3.545 20.8764 0
 1159 1 5.672 19.6484 0
 1160 1 6.381 20.8764 0
 1161 1 8.508 19.6484 0
 1162 1 7.799 20.8764 0
 1163 1 9.926 19.6484 0
 1164 1 10.635 20.8764 0
 1165 1 12.762 19.6484 0
 1166 1 12.053 20.8764 0
 1167 1 14.18 19.6484 0
 1168 1 14.889 20.8764 0
 1169 1 17.016 19.6484 0
 1170 1 16.307 20.8764 0
 1171 1 18.434 19.6484 0
 1172 1 19.143 20.8764 0
 1173 1 21.27 19.6484 0
 1174 1 20.561 20.8764 0
 1175 1 22.688 19.6484 0
 1176 1 23.397 20.8764 0
 1177 1 25.524 19.6484 0
 1178 1 24.815 20.8764 0
 1179 1 26.942 19.6484 0
 1180 1 27.651 20.8764 0
 1181 1 29.778 19.6484 0
 1182 1 29.069 20.8764 0
 1183 1 31.196 19.6484 0
 1184 1 31.905 20.8764 0
 1185 1 34.032 19.6484 0
 1186 1 33.323 20.8764 0
 1187 1 35.45 19.6484 0
 1188 1 36.159 20.8764 0
 1189 1 38.286 19.6484 0
 1190 1 37.577 20.8764 0
 1191 1 39.704 19.6484 0
 1192 1 40.413 20.8764 0
 1193 1 42.54 19.6484 0
 1194 1 41.831 20.8764 0
 1195 1 43.958 19.6484 0
 1196 1 44.667 20.8764 0
 1197 1 46.794 19.6484 0
 1198 1 46.085 20.8764 0
 1199 1 48.212 19.6484 0
 1200 1 48.921 20.8764 0
 1201 1 51.048 19.6484 0
 1202 1 50.339 20.8764 0
 1203 1 52.466 19.6484 0
 1204 1 53.175 20.8764 0
 1205 1 55.302 19.6484 0
 1206 1 54.593 20.8764 0
 1207 1 56.72 19.6484 0
 1208 1 57.429 20.8764 0
 1209 1 59.556 19.6484 0
 1210 1 58.847 20.8764 0
 1211 1 60.974 19.6484 0
 1212 1 61.683 20.8764 0
 1213 1 63.81 19.6484 0
 1214 1 63.101 20.8764 0
 1215 1 65.228 19.6484 0
 1216 1 65.937 20.8764 0
 1217 1 68.064 19.6484 0
 1218 1 67.355 20.8764 0
 1219 1 69.482 19.6484 0
 1220 1 70.191 20.8764 0
 1221 1 72.318 19.6484 0
 1222 1 71.609 20.8764 0
 1223 1 73.736 19.6484 0
 1224 1 74.445 20.8764 0
 1225 1 76.572 19.6484 0
 1226 1 75.863 20.8764 0
 1227 1 77.99 19.6484 0
 1228 1 78.699 20.8764 0
 1229 1 80.826 19.6484 0
 1230 1 80.117 20.8764 0
 1231 1 82.244 19.6484 0
 1232 1 82.953 20.8764 0
 1233 1 85.08 19.6484 0
 1234 1 84.371 20.8764 0
 1235 1 86.498 19.6484 0
 1236 1 87.207 20.8764 0
 1237 1 89.334 19.6484 0
 1238 1 88.625 20.8764 0
 1239 1 90.752 19.6484 0
 1240 1 91.461 20.8764 0
 1241 1 93.588 19.6484 0
 1242 1 92.879 20.8764 0
 1243 1 95.006 19.6484 0
 1244 1 95.715 20.8764 0
 1245 1 97.842 19.6484 0
 1246 1 97.133 20.8764 0
 1247 1 99.26 19.6484 0
 1248 1 99.969 20.8764 0
 1249 1 102.096 19.6484 0
 1250 1 101.387 20.8764 0
 1251 1 103.514 19.6484 0
 1252 1 104.223 20.8764 0
 1253 1 106.35 19.6484 0