ITEM: TIMESTEP
0
ITEM: NUMBER OF ATOMS
3375
ITEM: BOX BOUNDS pp pp pp
-20 20
-20 20
-20 20
ITEM: ATOMS id type xs ys zs
1688 2 0.0065 0.0065 0.0065
1 1 0.077 0.0065 0.0065
1692 2 0.1475 0.0065 0.0065
2 1 0.218 0.0065 0.0065
1696 2 0.2885 0.0065 0.0065
3 1 0.359 0.0065 0.0065
1700 2 0.4295 0.0065 0.0065
4 1 0.5 0.0065 0.0065
1704 2 0.5705 0.0065 0.0065
5 1 0.641 0.0065 0.0065
1708 2 0.7115 0.0065 0.0065
6 1 0.782 0.0065 0.0065
1712 2 0.8525 0.0065 0.0065
7 1 0.923 0.0065 0.0065
1716 2 0.9935 0.0065 0.0065
8 1 0.0065 0.077 0.0065
1689 2 0.077 0.077 0.0065
9 1 0.1475 0.077 0.0065
1693 2 0.218 0.077 0.0065
11 1 0.2885 0.077 0.0065
1697 2 0.359 0.077 0.0065
13 1 0.4295 0.077 0.0065
1701 2 0.5 0.077 0.0065
15 1 0.5705 0.077 0.0065
1705 2 0.641 0.077 0.0065
17 1 0.7115 0.077 0.0065
1709 2 0.782 0.077 0.0065
19 1 0.8525 0.077 0.0065
1713 2 0.923 0.077 0.0065
21 1 0.9935 0.077 0.0065
1718 2 0.0065 0.1475 0.0065
10 1 0.077 0.1475 0.0065
1722 2 0.1475 0.1475 0.0065
12 1 0.218 0.1475 0.0065
1726 2 0.2885 0.1475 0.0065
14 1 0.359 0.1475 0.0065
1730 2 0.4295 0.1475 0.0065
16 1 0.5 0.1475 0.0065
1734 2 0.5705 0.1475 0.0065
18 1 0.641 0.1475 0.0065
1738 2 0.7115 0.1475 0.0065
20 1 0.782 0.1475 0.0065
1742 2 0.8525 0.1475 0.0065
22 1 0.923 0.1475 0.0065
1746 2 0.9935 0.1475 0.0065
23 1 0.0065 0.218 0.0065
1719 2 0.077 0.218 0.0065
24 1 0.1475 0.218 0.0065
1723 2 0.218 0.218 0.0065
26 1 0.2885 0.218 0.0065
1727 2 0.359 0.218 0.0065
28 1 0.4295 0.218 0.0065
1731 2 0.5 0.218 0.0065
30 1 0.5705 0.218 0.0065
1735 2 0.641 0.218 0.0065
32 1 0.7115 0.218 0.0065
1739 2 0.782 0.218 0.0065
34 1 0.8525 0.218 0.0065
1743 2 0.923 0.218 0.0065
36 1 0.9935 0.218 0.0065
1748 2 0.0065 0.2885 0.0065
25 1 0.077 0.2885 0.0065
1752 2 0.1475 0.2885 0.0065
27 1 0.218 0.2885 0.0065
1756 2 0.2885 0.2885 0.0065
29 1 0.359 0.2885 0.0065
1760 2 0.4295 0.2885 0.0065
31 1 0.5 0.2885 0.0065
1764 2 0.5705 0.2885 0.0065
33 1 0.641 0.2885 0.0065
1768 2 0.7115 0.2885 0.0065
35 1 0.782 0.2885 0.0065
1772 2 0.8525 0.2885 0.0065
37 1 0.923 0.2885 0.0065
1776 2 0.9935 0.2885 0.0065
38 1 0.0065 0.359 0.0065
1749 2 0.077 0.359 0.0065
39 1 0.1475 0.359 0.0065
1753 2 0.218 0.359 0.0065
41 1 0.2885 0.359 0.0065
1757 2 0.359 0.359 0.0065
43 1 0.4295 0.359 0.0065
1761 2 0.5 0.359 0.0065
45 1 0.5705 0.359 0.0065
1765 2 0.641 0.359 0.0065
47 1 0.7115 0.359 0.0065
1769 2 0.782 0.359 0.0065
49 1 0.8525 0.359 0.0065
1773 2 0.923 0.359 0.0065
51 1 0.9935 0.359 0.0065
1778 2 0.0065 0.4295 0.0065
40 1 0.077 0.4295 0.0065
1782 2 0.1475 0.4295 0.0065
42 1 0.218 0.4295 0.0065
1786 2 0.2885 0.4295 0.0065
44 1 0.359 0.4295 0.0065
1790 2 0.4295 0.4295 0.0065
46 1 0.5 0.4295 0.0065
1794 2 0.5705 0.4295 0.0065
48 1 0.641 0.4295 0.0065
1798 2 0.7115 0.4295 0.0065
50 1 0.782 0.4295 0.0065
1802 2 0.8525 0.4295 0.0065
52 1 0.923 0.4295 0.0065
1806 2 0.9935 0.4295 0.0065
53 1 0.0065 0.5 0.0065
1779 2 0.077 0.5 0.0065
54 1 0.1475 0.5 0.0065
1783 2 0.218 0.5 0.0065
56 1 0.2885 0.5 0.0065
1787 2 0.359 0.5 0.0065
58 1 0.4295 0.5 0.0065
1791 2 0.5 0.5 0.0065
60 1 0.5705 0.5 0.0065
1795 2 0.641 0.5 0.0065
62 1 0.7115 0.5 0.0065
1799 2 0.782 0.5 0.0065
64 1 0.8525 0.5 0.0065
1803 2 0.923 0.5 0.0065
66 1 0.9935 0.5 0.0065
1808 2 0.0065 0.5705 0.0065
55 1 0.077 0.5705 0.0065
1812 2 0.1475 0.5705 0.0065
57 1 0.218 0.5705 0.0065
1816 2 0.2885 0.5705 0.0065
59 1 0.359 0.5705 0.0065
1820 2 0.4295 0.5705 0.0065
61 1 0.5 0.5705 0.0065
1824 2 0.5705 0.5705 0.0065
63 1 0.641 0.5705 0.0065
1828 2 0.7115 0.5705 0.0065
65 1 0.782 0.5705 0.0065
1832 2 0.8525 0.5705 0.0065
67 1 0.923 0.5705 0.0065
1836 2 0.9935 0.5705 0.0065
68 1 0.0065 0.641 0.0065
1809 2 0.077 0.641 0.0065
69 1 0.1475 0.641 0.0065
1813 2 0.218 0.641 0.0065
71 1 0.2885 0.641 0.0065
1817 2 0.359 0.641 0.0065
73 1 0.4295 0.641 0.0065
1821 2 0.5 0.641 0.0065
75 1 0.5705 0.641 0.0065
1825 2 0.641 0.641 0.0065
77 1 0.7115 0.641 0.0065
1829 2 0.782 0.641 0.0065
79 1 0.8525 0.641 0.0065
1833 2 0.923 0.641 0.0065
81 1 0.9935 0.641 0.0065
1838 2 0.0065 0.7115 0.0065
70 1 0.077 0.7115 0.0065
1842 2 0.1475 0.7115 0.0065
72 1 0.218 0.7115 0.0065
1846 2 0.2885 0.7115 0.0065
74 1 0.359 0.7115 0.0065
1850 2 0.4295 0.7115 0.0065
76 1 0.5 0.7115 0.0065
1854 2 0.5705 0.7115 0.0065
78 1 0.641 0.7115 0.0065
1858 2 0.7115 0.7115 0.0065
80 1 0.782 0.7115 0.0065
1862 2 0.8525 0.7115 0.0065
82 1 0.923 0.7115 0.0065
1866 2 0.9935 0.7115 0.0065
83 1 0.0065 0.782 0.0065
1839 2 0.077 0.782 0.0065
84 1 0.1475 0.782 0.0065
1843 2 0.218 0.782 0.0065
86 1 0.2885 0.782 0.0065
1847 2 0.359 0.782 0.0065
88 1 0.4295 0.782 0.0065
1851 2 0.5 0.782 0.0065
90 1 0.5705 0.782 0.0065
1855 2 0.641 0.782 0.0065
92 1 0.7115 0.782 0.0065
1859 2 0.782 0.782 0.0065
94 1 0.8525 0.782 0.0065
1863 2 0.923 0.782 0.0065
96 1 0.9935 0.782 0.0065
1868 2 0.0065 0.8525 0.0065
85 1 0.077 0.8525 0.0065
1872 2 0.1475 0.8525 0.0065
87 1 0.218 0.8525 0.0065
1876 2 0.2885 0.8525 0.0065
89 1 0.359 0.8525 0.0065
1880 2 0.4295 0.8525 0.0065
91 1 0.5 0.8525 0.0065
1884 2 0.5705 0.8525 0.0065
93 1 0.641 0.8525 0.0065
1888 2 0.7115 0.8525 0.0065
95 1 0.782 0.8525 0.0065
1892 2 0.8525 0.8525 0.0065
97 1 0.923 0.8525 0.0065
1896 2 0.9935 0.8525 0.0065
98 1 0.0065 0.923 0.0065
1869 2 0.077 0.923 0.0065
99 1 0.1475 0.923 0.0065
1873 2 0.218 0.923 0.0065
101 1 0.2885 0.923 0.0065
1877 2 0.359 0.923 0.0065
103 1 0.4295 0.923 0.0065
1881 2 0.5 0.923 0.0065
105 1 0.5705 0.923 0.0065
1885 2 0.641 0.923 0.0065
107 1 0.7115 0.923 0.0065
1889 2 0.782 0.923 0.0065
109 1 0.8525 0.923 0.0065
1893 2 0.923 0.923 0.0065
111 1 0.9935 0.923 0.0065
1898 2 0.0065 0.9935 0.0065
100 1 0.077 0.9935 0.0065
1900 2 0.1475 0.9935 0.0065
102 1 0.218 0.9935 0.0065
1902 2 0.2885 0.9935 0.0065
104 1 0.359 0.9935 0.0065
1904 2 0.4295 0.9935 0.0065
106 1 0.5 0.9935 0.0065
1906 2 0.5705 0.9935 0.0065
108 1 0.641 0.9935 0.0065
1908 2 0.7115 0.9935 0.0065
110 1 0.782 0.9935 0.0065
1910 2 0.8525 0.9935 0.0065
112 1 0.923 0.9935 0.0065
1912 2 0.9935 0.9935 0.0065
113 1 0.0065 0.0065 0.077
1690 2 0.077 0.0065 0.077
114 1 0.1475 0.0065 0.077
1694 2 0.218 0.0065 0.077
116 1 0.2885 0.0065 0.077
1698 2 0.359 0.0065 0.077
118 1 0.4295 0.0065 0.077
1702 2 0.5 0.0065 0.077
120 1 0.5705 0.0065 0.077
1706 2 0.641 0.0065 0.077
122 1 0.7115 0.0065 0.077
1710 2 0.782 0.0065 0.077
124 1 0.8525 0.0065 0.077
1714 2 0.923 0.0065 0.077
126 1 0.9935 0.0065 0.077
1691 2 0.0065 0.077 0.077
130 1 0.077 0.077 0.077
1695 2 0.1475 0.077 0.077
134 1 0.218 0.077 0.077
1699 2 0.2885 0.077 0.077
138 1 0.359 0.077 0.077
1703 2 0.4295 0.077 0.077
142 1 0.5 0.077 0.077
1707 2 0.5705 0.077 0.077
146 1 0.641 0.077 0.077
1711 2 0.7115 0.077 0.077
150 1 0.782 0.077 0.077
1715 2 0.8525 0.077 0.077
154 1 0.923 0.077 0.077
1717 2 0.9935 0.077 0.077
128 1 0.0065 0.1475 0.077
1720 2 0.077 0.1475 0.077
131 1 0.1475 0.1475 0.077
1724 2 0.218 0.1475 0.077
135 1 0.2885 0.1475 0.077
1728 2 0.359 0.1475 0.077
139 1 0.4295 0.1475 0.077
1732 2 0.5 0.1475 0.077
143 1 0.5705 0.1475 0.077
1736 2 0.641 0.1475 0.077
147 1 0.7115 0.1475 0.077
1740 2 0.782 0.1475 0.077
151 1 0.8525 0.1475 0.077
1744 2 0.923 0.1475 0.077
155 1 0.9935 0.1475 0.077
1721 2 0.0065 0.218 0.077
160 1 0.077 0.218 0.077
1725 2 0.1475 0.218 0.077
164 1 0.218 0.218 0.077
1729 2 0.2885 0.218 0.077
168 1 0.359 0.218 0.077
1733 2 0.4295 0.218 0.077
172 1 0.5 0.218 0.077
1737 2 0.5705 0.218 0.077
176 1 0.641 0.218 0.077
1741 2 0.7115 0.218 0.077
180 1 0.782 0.218 0.077
1745 2 0.8525 0.218 0.077
184 1 0.923 0.218 0.077
1747 2 0.9935 0.218 0.077
158 1 0.0065 0.2885 0.077
1750 2 0.077 0.2885 0.077
161 1 0.1475 0.2885 0.077
1754 2 0.218 0.2885 0.077
165 1 0.2885 0.2885 0.077
1758 2 0.359 0.2885 0.077
169 1 0.4295 0.2885 0.077
1762 2 0.5 0.2885 0.077
173 1 0.5705 0.2885 0.077
1766 2 0.641 0.2885 0.077
177 1 0.7115 0.2885 0.077
1770 2 0.782 0.2885 0.077
181 1 0.8525 0.2885 0.077
1774 2 0.923 0.2885 0.077
185 1 0.9935 0.2885 0.077
1751 2 0.0065 0.359 0.077
190 1 0.077 0.359 0.077
1755 2 0.1475 0.359 0.077
194 1 0.218 0.359 0.077
1759 2 0.2885 0.359 0.077
198 1 0.359 0.359 0.077
1763 2 0.4295 0.359 0.077
202 1 0.5 0.359 0.077
1767 2 0.5705 0.359 0.077
206 1 0.641 0.359 0.077
1771 2 0.7115 0.359 0.077
210 1 0.782 0.359 0.077
1775 2 0.8525 0.359 0.077
214 1 0.923 0.359 0.077
1777 2 0.9935 0.359 0.077
188 1 0.0065 0.4295 0.077
1780 2 0.077 0.4295 0.077
191 1 0.1475 0.4295 0.077
1784 2 0.218 0.4295 0.077
195 1 0.2885 0.4295 0.077
1788 2 0.359 0.4295 0.077
199 1 0.4295 0.4295 0.077
1792 2 0.5 0.4295 0.077
203 1 0.5705 0.4295 0.077
1796 2 0.641 0.4295 0.077
207 1 0.7115 0.4295 0.077
1800 2 0.782 0.4295 0.077
211 1 0.8525 0.4295 0.077
1804 2 0.923 0.4295 0.077
215 1 0.9935 0.4295 0.077
1781 2 0.0065 0.5 0.077
220 1 0.077 0.5 0.077
1785 2 0.1475 0.5 0.077
224 1 0.218 0.5 0.077
1789 2 0.2885 0.5 0.077
228 1 0.359 0.5 0.077
1793 2 0.4295 0.5 0.077
232 1 0.5 0.5 0.077
1797 2 0.5705 0.5 0.077
236 1 0.641 0.5 0.077
1801 2 0.7115 0.5 0.077
240 1 0.782 0.5 0.077
1805 2 0.8525 0.5 0.077
244 1 0.923 0.5 0.077
1807 2 0.9935 0.5 0.077
218 1 0.0065 0.5705 0.077
1810 2 0.077 0.5705 0.077
221 1 0.1475 0.5705 0.077
1814 2 0.218 0.5705 0.077
225 1 0.2885 0.5705 0.077
1818 2 0.359 0.5705 0.077
229 1 0.4295 0.5705 0.077
1822 2 0.5 0.5705 0.077
233 1 0.5705 0.5705 0.077
1826 2 0.641 0.5705 0.077
237 1 0.7115 0.5705 0.077
1830 2 0.782 0.5705 0.077
241 1 0.8525 0.5705 0.077
1834 2 0.923 0.5705 0.077
245 1 0.9935 0.5705 0.077
1811 2 0.0065 0.641 0.077
250 1 0.077 0.641 0.077
1815 2 0.1475 0.641 0.077
254 1 0.218 0.641 0.077
1819 2 0.2885 0.641 0.077
258 1 0.359 0.641 0.077
1823 2 0.4295 0.641 0.077
262 1 0.5 0.641 0.077
1827 2 0.5705 0.641 0.077
266 1 0.641 0.641 0.077
1831 2 0.7115 0.641 0.077
270 1 0.782 0.641 0.077
1835 2 0.8525 0.641 0.077
274 1 0.923 0.641 0.077
1837 2 0.9935 0.641 0.077
248 1 0.0065 0.7115 0.077
1840 2 0.077 0.7115 0.077
251 1 0.1475 0.7115 0.077
1844 2 0.218 0.7115 0.077
255 1 0.2885 0.7115 0.077
1848 2 0.359 0.7115 0.077
259 1 0.4295 0.7115 0.077
1852 2 0.5 0.7115 0.077
263 1 0.5705 0.7115 0.077
1856 2 0.641 0.7115 0.077
267 1 0.7115 0.7115 0.077
1860 2 0.782 0.7115 0.077
271 1 0.8525 0.7115 0.077
1864 2 0.923 0.7115 0.077
275 1 0.9935 0.7115 0.077
1841 2 0.0065 0.782 0.077
280 1 0.077 0.782 0.077
1845 2 0.1475 0.782 0.077
284 1 0.218 0.782 0.077
1849 2 0.2885 0.782 0.077
288 1 0.359 0.782 0.077
1853 2 0.4295 0.782 0.077
292 1 0.5 0.782 0.077
1857 2 0.5705 0.782 0.077
296 1 0.641 0.782 0.077
1861 2 0.7115 0.782 0.077
300 1 0.782 0.782 0.077
1865 2 0.8525 0.782 0.077
304 1 0.923 0.782 0.077
1867 2 0.9935 0.782 0.077
278 1 0.0065 0.8525 0.077
1870 2 0.077 0.8525 0.077
281 1 0.1475 0.8525 0.077
1874 2 0.218 0.8525 0.077
285 1 0.2885 0.8525 0.077
1878 2 0.359 0.8525 0.077
289 1 0.4295 0.8525 0.077
1882 2 0.5 0.8525 0.077
293 1 0.5705 0.8525 0.077
1886 2 0.641 0.8525 0.077
297 1 0.7115 0.8525 0.077
1890 2 0.782 0.8525 0.077
301 1 0.8525 0.8525 0.077
1894 2 0.923 0.8525 0.077
305 1 0.9935 0.8525 0.077
1871 2 0.0065 0.923 0.077
310 1 0.077 0.923 0.077
1875 2 0.1475 0.923 0.077
314 1 0.218 0.923 0.077
1879 2 0.2885 0.923 0.077
318 1 0.359 0.923 0.077
1883 2 0.4295 0.923 0.077
322 1 0.5 0.923 0.077
1887 2 0.5705 0.923 0.077
326 1 0.641 0.923 0.077
1891 2 0.7115 0.923 0.077
330 1 0.782 0.923 0.077
1895 2 0.8525 0.923 0.077
334 1 0.923 0.923 0.077
1897 2 0.9935 0.923 0.077
308 1 0.0065 0.9935 0.077
1899 2 0.077 0.9935 0.077
311 1 0.1475 0.9935 0.077
1901 2 0.218 0.9935 0.077
315 1 0.2885 0.9935 0.077
1903 2 0.359 0.9935 0.077
319 1 0.4295 0.9935 0.077
1905 2 0.5 0.9935 0.077
323 1 0.5705 0.9935 0.077
1907 2 0.641 0.9935 0.077
327 1 0.7115 0.9935 0.077
1909 2 0.782 0.9935 0.077
331 1 0.8525 0.9935 0.077
1911 2 0.923 0.9935 0.077
335 1 0.9935 0.9935 0.077
1913 2 0.0065 0.0065 0.1475
115 1 0.077 0.0065 0.1475
1917 2 0.1475 0.0065 0.1475
117 1 0.218 0.0065 0.1475
1921 2 0.2885 0.0065 0.1475
119 1 0.359 0.0065 0.1475
1925 2 0.4295 0.0065 0.1475
121 1 0.5 0.0065 0.1475
1929 2 0.5705 0.0065 0.1475
123 1 0.641 0.0065 0.1475
1933 2 0.7115 0.0065 0.1475
125 1 0.782 0.0065 0.1475
1937 2 0.8525 0.0065 0.1475
127 1 0.923 0.0065 0.1475
1941 2 0.9935 0.0065 0.1475
129 1 0.0065 0.077 0.1475
1914 2 0.077 0.077 0.1475
132 1 0.1475 0.077 0.1475
1918 2 0.218 0.077 0.1475
136 1 0.2885 0.077 0.1475
1922 2 0.359 0.077 0.1475
140 1 0.4295 0.077 0.1475
1926 2 0.5 0.077 0.1475
144 1 0.5705 0.077 0.1475
1930 2 0.641 0.077 0.1475
148 1 0.7115 0.077 0.1475
1934 2 0.782 0.077 0.1475
152 1 0.8525 0.077 0.1475
1938 2 0.923 0.077 0.1475
156 1 0.9935 0.077 0.1475
1943 2 0.0065 0.1475 0.1475
133 1 0.077 0.1475 0.1475
1947 2 0.1475 0.1475 0.1475
137 1 0.218 0.1475 0.1475
1951 2 0.2885 0.1475 0.1475
141 1 0.359 0.1475 0.1475
1955 2 0.4295 0.1475 0.1475
145 1 0.5 0.1475 0.1475
1959 2 0.5705 0.1475 0.1475
149 1 0.641 0.1475 0.1475
1963 2 0.7115 0.1475 0.1475
153 1 0.782 0.1475 0.1475
1967 2 0.8525 0.1475 0.1475
157 1 0.923 0.1475 0.1475
1971 2 0.9935 0.1475 0.1475
159 1 0.0065 0.218 0.1475
1944 2 0.077 0.218 0.1475
162 1 0.1475 0.218 0.1475
1948 2 0.218 0.218 0.1475
166 1 0.2885 0.218 0.1475
1952 2 0.359 0.218 0.1475
170 1 0.4295 0.218 0.1475
1956 2 0.5 0.218 0.1475
174 1 0.5705 0.218 0.1475
1960 2 0.641 0.218 0.1475
178 1 0.7115 0.218 0.1475
1964 2 0.782 0.218 0.1475
182 1 0.8525 0.218 0.1475
1968 2 0.923 0.218 0.1475
186 1 0.9935 0.218 0.1475
1973 2 0.0065 0.2885 0.1475
163 1 0.077 0.2885 0.1475
1977 2 0.1475 0.2885 0.1475
167 1 0.218 0.2885 0.1475
1981 2 0.2885 0.2885 0.1475
171 1 0.359 0.2885 0.1475
1985 2 0.4295 0.2885 0.1475
175 1 0.5 0.2885 0.1475
1989 2 0.5705 0.2885 0.1475
179 1 0.641 0.2885 0.1475
1993 2 0.7115 0.2885 0.1475
183 1 0.782 0.2885 0.1475
1997 2 0.8525 0.2885 0.1475
187 1 0.923 0.2885 0.1475
2001 2 0.9935 0.2885 0.1475
189 1 0.0065 0.359 0.1475
1974 2 0.077 0.359 0.1475
192 1 0.1475 0.359 0.1475
1978 2 0.218 0.359 0.1475
196 1 0.2885 0.359 0.1475
1982 2 0.359 0.359 0.1475
200 1 0.4295 0.359 0.1475
1986 2 0.5 0.359 0.1475
204 1 0.5705 0.359 0.1475
1990 2 0.641 0.359 0.1475
208 1 0.7115 0.359 0.1475
1994 2 0.782 0.359 0.1475
212 1 0.8525 0.359 0.1475
1998 2 0.923 0.359 0.1475
216 1 0.9935 0.359 0.1475
2003 2 0.0065 0.4295 0.1475
193 1 0.077 0.4295 0.1475
2007 2 0.1475 0.4295 0.1475
197 1 0.218 0.4295 0.1475
2011 2 0.2885 0.4295 0.1475
201 1 0.359 0.4295 0.1475
2015 2 0.4295 0.4295 0.1475
205 1 0.5 0.4295 0.1475
2019 2 0.5705 0.4295 0.1475
209 1 0.641 0.4295 0.1475
2023 2 0.7115 0.4295 0.1475
213 1 0.782 0.4295 0.1475
2027 2 0.8525 0.4295 0.1475
217 1 0.923 0.4295 0.1475
2031 2 0.9935 0.4295 0.1475
219 1 0.0065 0.5 0.1475
2004 2 0.077 0.5 0.1475
222 1 0.1475 0.5 0.1475
2008 2 0.218 0.5 0.1475
226 1 0.2885 0.5 0.1475
2012 2 0.359 0.5 0.1475
230 1 0.4295 0.5 0.1475
2016 2 0.5 0.5 0.1475
234 1 0.5705 0.5 0.1475
2020 2 0.641 0.5 0.1475
238 1 0.7115 0.5 0.1475
2024 2 0.782 0.5 0.1475
242 1 0.8525 0.5 0.1475
2028 2 0.923 0.5 0.1475
246 1 0.9935 0.5 0.1475
2033 2 0.0065 0.5705 0.1475
223 1 0.077 0.5705 0.1475
2037 2 0.1475 0.5705 0.1475
227 1 0.218 0.5705 0.1475
2041 2 0.2885 0.5705 0.1475
231 1 0.359 0.5705 0.1475
2045 2 0.4295 0.5705 0.1475
235 1 0.5 0.5705 0.1475
2049 2 0.5705 0.5705 0.1475
239 1 0.641 0.5705 0.1475
2053 2 0.7115 0.5705 0.1475
243 1 0.782 0.5705 0.1475
2057 2 0.8525 0.5705 0.1475
247 1 0.923 0.5705 0.1475
2061 2 0.9935 0.5705 0.1475
249 1 0.0065 0.641 0.1475
2034 2 0.077 0.641 0.1475
252 1 0.1475 0.641 0.1475
2038 2 0.218 0.641 0.1475
256 1 0.2885 0.641 0.1475
2042 2 0.359 0.641 0.1475
260 1 0.4295 0.641 0.1475
2046 2 0.5 0.641 0.1475
264 1 0.5705 0.641 0.1475
2050 2 0.641 0.641 0.1475
268 1 0.7115 0.641 0.1475
2054 2 0.782 0.641 0.1475
272 1 0.8525 0.641 0.1475
2058 2 0.923 0.641 0.1475
276 1 0.9935 0.641 0.1475
2063 2 0.0065 0.7115 0.1475
253 1 0.077 0.7115 0.1475
2067 2 0.1475 0.7115 0.1475
257 1 0.218 0.7115 0.1475
2071 2 0.2885 0.7115 0.1475
261 1 0.359 0.7115 0.1475
2075 2 0.4295 0.7115 0.1475
265 1 0.5 0.7115 0.1475
2079 2 0.5705 0.7115 0.1475
269 1 0.641 0.7115 0.1475
2083 2 0.7115 0.7115 0.1475
273 1 0.782 0.7115 0.1475
2087 2 0.8525 0.7115 0.1475
277 1 0.923 0.7115 0.1475
2091 2 0.9935 0.7115 0.1475
279 1 0.0065 0.782 0.1475
2064 2 0.077 0.782 0.1475
282 1 0.1475 0.782 0.1475
2068 2 0.218 0.782 0.1475
286 1 0.2885 0.782 0.1475
2072 2 0.359 0.782 0.1475
290 1 0.4295 0.782 0.1475
2076 2 0.5 0.782 0.1475
294 1 0.5705 0.782 0.1475
2080 2 0.641 0.782 0.1475
298 1 0.7115 0.782 0.1475
2084 2 0.782 0.782 0.1475
302 1 0.8525 0.782 0.1475
2088 2 0.923 0.782 0.1475
306 1 0.9935 0.782 0.1475
2093 2 0.0065 0.8525 0.1475
283 1 0.077 0.8525 0.1475
2097 2 0.1475 0.8525 0.1475
287 1 0.218 0.8525 0.1475
2101 2 0.2885 0.8525 0.1475
291 1 0.359 0.8525 0.1475
2105 2 0.4295 0.8525 0.1475
295 1 0.5 0.8525 0.1475
2109 2 0.5705 0.8525 0.1475
299 1 0.641 0.8525 0.1475
2113 2 0.7115 0.8525 0.1475
303 1 0.782 0.8525 0.1475
2117 2 0.8525 0.8525 0.1475
307 1 0.923 0.8525 0.1475
2121 2 0.9935 0.8525 0.1475
309 1 0.0065 0.923 0.1475
2094 2 0.077 0.923 0.1475
312 1 0.1475 0.923 0.1475
2098 2 0.218 0.923 0.1475
316 1 0.2885 0.923 0.1475
2102 2 0.359 0.923 0.1475
320 1 0.4295 0.923 0.1475
2106 2 0.5 0.923 0.1475
324 1 0.5705 0.923 0.1475
2110 2 0.641 0.923 0.1475
328 1 0.7115 0.923 0.1475
2114 2 0.782 0.923 0.1475
332 1 0.8525 0.923 0.1475
2118 2 0.923 0.923 0.1475
336 1 0.9935 0.923 0.1475
2123 2 0.0065 0.9935 0.1475
313 1 0.077 0.9935 0.1475
2125 2 0.1475 0.9935 0.1475
317 1 0.218 0.9935 0.1475
2127 2 0.2885 0.9935 0.1475
321 1 0.359 0.9935 0.1475
2129 2 0.4295 0.9935 0.1475
325 1 0.5 0.9935 0.1475
2131 2 0.5705 0.9935 0.1475
329 1 0.641 0.9935 0.1475
2133 2 0.7115 0.9935 0.1475
333 1 0.782 0.9935 0.1475
2135 2 0.8525 0.9935 0.1475
337 1 0.923 0.9935 0.1475
2137 2 0.9935 0.9935 0.1475
338 1 0.0065 0.0065 0.218
1915 2 0.077 0.0065 0.218
339 1 0.1475 0.0065 0.218
1919 2 0.218 0.0065 0.218
341 1 0.2885 0.0065 0.218
1923 2 0.359 0.0065 0.218
343 1 0.4295 0.0065 0.218
1927 2 0.5 0.0065 0.218
345 1 0.5705 0.0065 0.218
1931 2 0.641 0.0065 0.218
347 1 0.7115 0.0065 0.218
1935 2 0.782 0.0065 0.218
349 1 0.8525 0.0065 0.218
1939 2 0.923 0.0065 0.218
351 1 0.9935 0.0065 0.218
1916 2 0.0065 0.077 0.218
355 1 0.077 0.077 0.218
1920 2 0.1475 0.077 0.218
359 1 0.218 0.077 0.218
1924 2 0.2885 0.077 0.218
363 1 0.359 0.077 0.218
1928 2 0.4295 0.077 0.218
367 1 0.5 0.077 0.218
1932 2 0.5705 0.077 0.218
371 1 0.641 0.077 0.218
1936 2 0.7115 0.077 0.218
375 1 0.782 0.077 0.218
1940 2 0.8525 0.077 0.218
379 1 0.923 0.077 0.218
1942 2 0.9935 0.077 0.218
353 1 0.0065 0.1475 0.218
1945 2 0.077 0.1475 0.218
356 1 0.1475 0.1475 0.218
1949 2 0.218 0.1475 0.218
360 1 0.2885 0.1475 0.218
1953 2 0.359 0.1475 0.218
364 1 0.4295 0.1475 0.218
1957 2 0.5 0.1475 0.218
368 1 0.5705 0.1475 0.218
1961 2 0.641 0.1475 0.218
372 1 0.7115 0.1475 0.218
1965 2 0.782 0.1475 0.218
376 1 0.8525 0.1475 0.218
1969 2 0.923 0.1475 0.218
380 1 0.9935 0.1475 0.218
1946 2 0.0065 0.218 0.218
385 1 0.077 0.218 0.218
1950 2 0.1475 0.218 0.218
389 1 0.218 0.218 0.218
1954 2 0.2885 0.218 0.218
393 1 0.359 0.218 0.218
1958 2 0.4295 0.218 0.218
397 1 0.5 0.218 0.218
1962 2 0.5705 0.218 0.218
401 1 0.641 0.218 0.218
1966 2 0.7115 0.218 0.218
405 1 0.782 0.218 0.218
1970 2 0.8525 0.218 0.218
409 1 0.923 0.218 0.218
1972 2 0.9935 0.218 0.218
383 1 0.0065 0.2885 0.218
1975 2 0.077 0.2885 0.218
386 1 0.1475 0.2885 0.218
1979 2 0.218 0.2885 0.218
390 1 0.2885 0.2885 0.218
1983 2 0.359 0.2885 0.218
394 1 0.4295 0.2885 0.218
1987 2 0.5 0.2885 0.218
398 1 0.5705 0.2885 0.218
1991 2 0.641 0.2885 0.218
402 1 0.7115 0.2885 0.218
1995 2 0.782 0.2885 0.218
406 1 0.8525 0.2885 0.218
1999 2 0.923 0.2885 0.218
410 1 0.9935 0.2885 0.218
1976 2 0.0065 0.359 0.218
415 1 0.077 0.359 0.218
1980 2 0.1475 0.359 0.218
419 1 0.218 0.359 0.218
1984 2 0.2885 0.359 0.218
423 1 0.359 0.359 0.218
1988 2 0.4295 0.359 0.218
427 1 0.5 0.359 0.218
1992 2 0.5705 0.359 0.218
431 1 0.641 0.359 0.218
1996 2 0.7115 0.359 0.218
435 1 0.782 0.359 0.218
2000 2 0.8525 0.359 0.218
439 1 0.923 0.359 0.218
2002 2 0.9935 0.359 0.218
413 1 0.0065 0.4295 0.218
2005 2 0.077 0.4295 0.218
416 1 0.1475 0.4295 0.218
2009 2 0.218 0.4295 0.218
420 1 0.2885 0.4295 0.218
2013 2 0.359 0.4295 0.218
424 1 0.4295 0.4295 0.218
2017 2 0.5 0.4295 0.218
428 1 0.5705 0.4295 0.218
2021 2 0.641 0.4295 0.218
432 1 0.7115 0.4295 0.218
2025 2 0.782 0.4295 0.218
436 1 0.8525 0.4295 0.218
2029 2 0.923 0.4295 0.218
440 1 0.9935 0.4295 0.218
2006 2 0.0065 0.5 0.218
445 1 0.077 0.5 0.218
2010 2 0.1475 0.5 0.218
449 1 0.218 0.5 0.218
2014 2 0.2885 0.5 0.218
453 1 0.359 0.5 0.218
2018 2 0.4295 0.5 0.218
457 1 0.5 0.5 0.218
2022 2 0.5705 0.5 0.218
461 1 0.641 0.5 0.218
2026 2 0.7115 0.5 0.218
465 1 0.782 0.5 0.218
2030 2 0.8525 0.5 0.218
469 1 0.923 0.5 0.218
2032 2 0.9935 0.5 0.218
443 1 0.0065 0.5705 0.218
2035 2 0.077 0.5705 0.218
446 1 0.1475 0.5705 0.218
2039 2 0.218 0.5705 0.218
450 1 0.2885 0.5705 0.218
2043 2 0.359 0.5705 0.218
454 1 0.4295 0.5705 0.218
2047 2 0.5 0.5705 0.218
458 1 0.5705 0.5705 0.218
2051 2 0.641 0.5705 0.218
462 1 0.7115 0.5705 0.218
2055 2 0.782 0.5705 0.218
466 1 0.8525 0.5705 0.218
2059 2 0.923 0.5705 0.218
470 1 0.9935 0.5705 0.218
2036 2 0.0065 0.641 0.218
475 1 0.077 0.641 0.218
2040 2 0.1475 0.641 0.218
479 1 0.218 0.641 0.218
2044 2 0.2885 0.641 0.218
483 1 0.359 0.641 0.218
2048 2 0.4295 0.641 0.218
487 1 0.5 0.641 0.218
2052 2 0.5705 0.641 0.218
491 1 0.641 0.641 0.218
2056 2 0.7115 0.641 0.218
495 1 0.782 0.641 0.218
2060 2 0.8525 0.641 0.218
499 1 0.923 0.641 0.218
2062 2 0.9935 0.641 0.218
473 1 0.0065 0.7115 0.218
2065 2 0.077 0.7115 0.218
476 1 0.1475 0.7115 0.218
2069 2 0.218 0.7115 0.218
480 1 0.2885 0.7115 0.218
2073 2 0.359 0.7115 0.218
484 1 0.4295 0.7115 0.218
2077 2 0.5 0.7115 0.218
488 1 0.5705 0.7115 0.218
2081 2 0.641 0.7115 0.218
492 1 0.7115 0.7115 0.218
2085 2 0.782 0.7115 0.218
496 1 0.8525 0.7115 0.218
2089 2 0.923 0.7115 0.218
500 1 0.9935 0.7115 0.218
2066 2 0.0065 0.782 0.218
505 1 0.077 0.782 0.218
2070 2 0.1475 0.782 0.218
509 1 0.218 0.782 0.218
2074 2 0.2885 0.782 0.218
513 1 0.359 0.782 0.218
2078 2 0.4295 0.782 0.218
517 1 0.5 0.782 0.218
2082 2 0.5705 0.782 0.218
521 1 0.641 0.782 0.218
2086 2 0.7115 0.782 0.218
525 1 0.782 0.782 0.218
2090 2 0.8525 0.782 0.218
529 1 0.923 0.782 0.218
2092 2 0.9935 0.782 0.218
503 1 0.0065 0.8525 0.218
2095 2 0.077 0.8525 0.218
506 1 0.1475 0.8525 0.218
2099 2 0.218 0.8525 0.218
510 1 0.2885 0.8525 0.218
2103 2 0.359 0.8525 0.218
514 1 0.4295 0.8525 0.218
2107 2 0.5 0.8525 0.218
518 1 0.5705 0.8525 0.218
2111 2 0.641 0.8525 0.218
522 1 0.7115 0.8525 0.218
2115 2 0.782 0.8525 0.218
526 1 0.8525 0.8525 0.218
2119 2 0.923 0.8525 0.218
530 1 0.9935 0.8525 0.218
2096 2 0.0065 0.923 0.218
535 1 0.077 0.923 0.218
2100 2 0.1475 0.923 0.218
539 1 0.218 0.923 0.218
2104 2 0.2885 0.923 0.218
543 1 0.359 0.923 0.218
2108 2 0.4295 0.923 0.218
547 1 0.5 0.923 0.218
2112 2 0.5705 0.923 0.218
551 1 0.641 0.923 0.218
2116 2 0.7115 0.923 0.218
555 1 0.782 0.923 0.218
2120 2 0.8525 0.923 0.218
559 1 0.923 0.923 0.218
2122 2 0.9935 0.923 0.218
533 1 0.0065 0.9935 0.218
2124 2 0.077 0.9935 0.218
536 1 0.1475 0.9935 0.218
2126 2 0.218 0.9935 0.218
540 1 0.2885 0.9935 0.218
2128 2 0.359 0.9935 0.218
544 1 0.4295 0.9935 0.218
2130 2 0.5 0.9935 0.218
548 1 0.5705 0.9935 0.218
2132 2 0.641 0.9935 0.218
552 1 0.7115 0.9935 0.218
2134 2 0.782 0.9935 0.218
556 1 0.8525 0.9935 0.218
2136 2 0.923 0.9935 0.218
560 1 0.9935 0.9935 0.218
2138 2 0.0065 0.0065 0.2885
340 1 0.077 0.0065 0.2885
2142 2 0.1475 0.0065 0.2885
342 1 0.218 0.0065 0.2885
2146 2 0.2885 0.0065 0.2885
344 1 0.359 0.0065 0.2885
2150 2 0.4295 0.0065 0.2885
346 1 0.5 0.0065 0.2885
2154 2 0.5705 0.0065 0.2885
348 1 0.641 0.0065 0.2885
2158 2 0.7115 0.0065 0.2885
350 1 0.782 0.0065 0.2885
2162 2 0.8525 0.0065 0.2885
352 1 0.923 0.0065 0.2885
2166 2 0.9935 0.0065 0.2885
354 1 0.0065 0.077 0.2885
2139 2 0.077 0.077 0.2885
357 1 0.1475 0.077 0.2885
2143 2 0.218 0.077 0.2885
361 1 0.2885 0.077 0.2885
2147 2 0.359 0.077 0.2885
365 1 0.4295 0.077 0.2885
2151 2 0.5 0.077 0.2885
369 1 0.5705 0.077 0.2885
2155 2 0.641 0.077 0.2885
373 1 0.7115 0.077 0.2885
2159 2 0.782 0.077 0.2885
377 1 0.8525 0.077 0.2885
2163 2 0.923 0.077 0.2885
381 1 0.9935 0.077 0.2885
2168 2 0.0065 0.1475 0.2885
358 1 0.077 0.1475 0.2885
2172 2 0.1475 0.1475 0.2885
362 1 0.218 0.1475 0.2885
2176 2 0.2885 0.1475 0.2885
366 1 0.359 0.1475 0.2885
2180 2 0.4295 0.1475 0.2885
370 1 0.5 0.1475 0.2885
2184 2 0.5705 0.1475 0.2885
374 1 0.641 0.1475 0.2885
2188 2 0.7115 0.1475 0.2885
378 1 0.782 0.1475 0.2885
2192 2 0.8525 0.1475 0.2885
382 1 0.923 0.1475 0.2885
2196 2 0.9935 0.1475 0.2885
384 1 0.0065 0.218 0.2885
2169 2 0.077 0.218 0.2885
387 1 0.1475 0.218 0.2885
2173 2 0.218 0.218 0.2885
391 1 0.2885 0.218 0.2885
2177 2 0.359 0.218 0.2885
395 1 0.4295 0.218 0.2885
2181 2 0.5 0.218 0.2885
399 1 0.5705 0.218 0.2885
2185 2 0.641 0.218 0.2885
403 1 0.7115 0.218 0.2885
2189 2 0.782 0.218 0.2885
407 1 0.8525 0.218 0.2885
2193 2 0.923 0.218 0.2885
411 1 0.9935 0.218 0.2885
2198 2 0.0065 0.2885 0.2885
388 1 0.077 0.2885 0.2885
2202 2 0.1475 0.2885 0.2885
392 1 0.218 0.2885 0.2885
2206 2 0.2885 0.2885 0.2885
396 1 0.359 0.2885 0.2885
2210 2 0.4295 0.2885 0.2885
400 1 0.5 0.2885 0.2885
2214 2 0.5705 0.2885 0.2885
404 1 0.641 0.2885 0.2885
2218 2 0.7115 0.2885 0.2885
408 1 0.782 0.2885 0.2885
2222 2 0.8525 0.2885 0.2885
412 1 0.923 0.2885 0.2885
2226 2 0.9935 0.2885 0.2885
414 1 0.0065 0.359 0.2885
2199 2 0.077 0.359 0.2885
417 1 0.1475 0.359 0.2885
2203 2 0.218 0.359 0.2885
421 1 0.2885 0.359 0.2885
2207 2 0.359 0.359 0.2885
425 1 0.4295 0.359 0.2885
2211 2 0.5 0.359 0.2885
429 1 0.5705 0.359 0.2885
2215 2 0.641 0.359 0.2885
433 1 0.7115 0.359 0.2885
2219 2 0.782 0.359 0.2885
437 1 0.8525 0.359 0.2885
2223 2 0.923 0.359 0.2885
441 1 0.9935 0.359 0.2885
2228 2 0.0065 0.4295 0.2885
418 1 0.077 0.4295 0.2885
2232 2 0.1475 0.4295 0.2885
422 1 0.218 0.4295 0.2885
2236 2 0.2885 0.4295 0.2885
426 1 0.359 0.4295 0.2885
2240 2 0.4295 0.4295 0.2885
430 1 0.5 0.4295 0.2885
2244 2 0.5705 0.4295 0.2885
434 1 0.641 0.4295 0.2885
2248 2 0.7115 0.4295 0.2885
438 1 0.782 0.4295 0.2885
2252 2 0.8525 0.4295 0.2885
442 1 0.923 0.4295 0.2885
2256 2 0.9935 0.4295 0.2885
444 1 0.0065 0.5 0.2885
2229 2 0.077 0.5 0.2885
447 1 0.1475 0.5 0.2885
2233 2 0.218 0.5 0.2885
451 1 0.2885 0.5 0.2885
2237 2 0.359 0.5 0.2885
455 1 0.4295 0.5 0.2885
2241 2 0.5 0.5 0.2885
459 1 0.5705 0.5 0.2885
2245 2 0.641 0.5 0.2885
463 1 0.7115 0.5 0.2885
2249 2 0.782 0.5 0.2885
467 1 0.8525 0.5 0.2885
2253 2 0.923 0.5 0.2885
471 1 0.9935 0.5 0.2885
2258 2 0.0065 0.5705 0.2885
448 1 0.077 0.5705 0.2885
2262 2 0.1475 0.5705 0.2885
452 1 0.218 0.5705 0.2885
2266 2 0.2885 0.5705 0.2885
456 1 0.359 0.5705 0.2885
2270 2 0.4295 0.5705 0.2885
460 1 0.5 0.5705 0.2885
2274 2 0.5705 0.5705 0.2885
464 1 0.641 0.5705 0.2885
2278 2 0.7115 0.5705 0.2885
468 1 0.782 0.5705 0.2885
2282 2 0.8525 0.5705 0.2885
472 1 0.923 0.5705 0.2885
2286 2 0.9935 0.5705 0.2885
474 1 0.0065 0.641 0.2885
2259 2 0.077 0.641 0.2885
477 1 0.1475 0.641 0.2885
2263 2 0.218 0.641 0.2885
481 1 0.2885 0.641 0.2885
2267 2 0.359 0.641 0.2885
485 1 0.4295 0.641 0.2885
2271 2 0.5 0.641 0.2885
489 1 0.5705 0.641 0.2885
2275 2 0.641 0.641 0.2885
493 1 0.7115 0.641 0.2885
2279 2 0.782 0.641 0.2885
497 1 0.8525 0.641 0.2885
2283 2 0.923 0.641 0.2885
501 1 0.9935 0.641 0.2885
2288 2 0.0065 0.7115 0.2885
478 1 0.077 0.7115 0.2885
2292 2 0.1475 0.7115 0.2885
482 1 0.218 0.7115 0.2885
2296 2 0.2885 0.7115 0.2885
486 1 0.359 0.7115 0.2885
2300 2 0.4295 0.7115 0.2885
490 1 0.5 0.7115 0.2885
2304 2 0.5705 0.7115 0.2885
494 1 0.641 0.7115 0.2885
2308 2 0.7115 0.7115 0.2885
498 1 0.782 0.7115 0.2885
2312 2 0.8525 0.7115 0.2885
502 1 0.923 0.7115 0.2885
2316 2 0.9935 0.7115 0.2885
504 1 0.0065 0.782 0.2885
2289 2 0.077 0.782 0.2885
507 1 0.1475 0.782 0.2885
2293 2 0.218 0.782 0.2885
511 1 0.2885 0.782 0.2885
2297 2 0.359 0.782 0.2885
515 1 0.4295 0.782 0.2885
2301 2 0.5 0.782 0.2885
519 1 0.5705 0.782 0.2885
2305 2 0.641 0.782 0.2885
523 1 0.7115 0.782 0.2885
2309 2 0.782 0.782 0.2885
527 1 0.8525 0.782 0.2885
2313 2 0.923 0.782 0.2885
531 1 0.9935 0.782 0.2885
2318 2 0.0065 0.8525 0.2885
508 1 0.077 0.8525 0.2885
2322 2 0.1475 0.8525 0.2885
512 1 0.218 0.8525 0.2885
2326 2 0.2885 0.8525 0.2885
516 1 0.359 0.8525 0.2885
2330 2 0.4295 0.8525 0.2885
520 1 0.5 0.8525 0.2885
2334 2 0.5705 0.8525 0.2885
524 1 0.641 0.8525 0.2885
2338 2 0.7115 0.8525 0.2885
528 1 0.782 0.8525 0.2885
2342 2 0.8525 0.8525 0.2885
532 1 0.923 0.8525 0.2885
2346 2 0.9935 0.8525 0.2885
534 1 0.0065 0.923 0.2885
2319 2 0.077 0.923 0.2885
537 1 0.1475 0.923 0.2885
2323 2 0.218 0.923 0.2885
541 1 0.2885 0.923 0.2885
2327 2 0.359 0.923 0.2885
545 1 0.4295 0.923 0.2885
2331 2 0.5 0.923 0.2885
549 1 0.5705 0.923 0.2885
2335 2 0.641 0.923 0.2885
553 1 0.7115 0.923 0.2885
2339 2 0.782 0.923 0.2885
557 1 0.8525 0.923 0.2885
2343 2 0.923 0.923 0.2885
561 1 0.9935 0.923 0.2885
2348 2 0.0065 0.9935 0.2885
538 1 0.077 0.9935 0.2885
2350 2 0.1475 0.9935 0.2885
542 1 0.218 0.9935 0.2885
2352 2 0.2885 0.9935 0.2885
546 1 0.359 0.9935 0.2885
2354 2 0.4295 0.9935 0.2885
550 1 0.5 0.9935 0.2885
2356 2 0.5705 0.9935 0.2885
554 1 0.641 0.9935 0.2885
2358 2 0.7115 0.9935 0.2885
558 1 0.782 0.9935 0.2885
2360 2 0.8525 0.9935 0.2885
562 1 0.923 0.9935 0.2885
2362 2 0.9935 0.9935 0.2885
563 1 0.0065 0.0065 0.359
2140 2 0.077 0.0065 0.359
564 1 0.1475 0.0065 0.359
2144 2 0.218 0.0065 0.359
566 1 0.2885 0.0065 0.359
2148 2 0.359 0.0065 0.359
568 1 0.4295 0.0065 0.359
2152 2 0.5 0.0065 0.359
570 1 0.5705 0.0065 0.359
2156 2 0.641 0.0065 0.359
572 1 0.7115 0.0065 0.359
2160 2 0.782 0.0065 0.359
574 1 0.8525 0.0065 0.359
2164 2 0.923 0.0065 0.359
576 1 0.9935 0.0065 0.359
2141 2 0.0065 0.077 0.359
580 1 0.077 0.077 0.359
2145 2 0.1475 0.077 0.359
584 1 0.218 0.077 0.359
2149 2 0.2885 0.077 0.359
588 1 0.359 0.077 0.359
2153 2 0.4295 0.077 0.359
592 1 0.5 0.077 0.359
2157 2 0.5705 0.077 0.359
596 1 0.641 0.077 0.359
2161 2 0.7115 0.077 0.359
600 1 0.782 0.077 0.359
2165 2 0.8525 0.077 0.359
604 1 0.923 0.077 0.359
2167 2 0.9935 0.077 0.359
578 1 0.0065 0.1475 0.359
2170 2 0.077 0.1475 0.359
581 1 0.1475 0.1475 0.359