2
Atoms. Timestep: 0
2 79.1 79.1 -3
2 80.8 80.8 -3
2
Atoms. Timestep: 10
2 79.0998 79.0998 -3.00004
2 80.8002 80.8002 -3.00005
2
Atoms. Timestep: 20
2 79.0991 79.0991 -3.00017
2 80.8009 80.8009 -3.00021
2
Atoms. Timestep: 30
2 79.098 79.0979 -3.00038
2 80.802 80.802 -3.00048
2
Atoms. Timestep: 40
2 79.0964 79.0964 -3.00067
2 80.8036 80.8036 -3.00084
2
Atoms. Timestep: 50
2 79.0945 79.0943 -3.00103
2 80.8056 80.8055 -3.00129
2
Atoms. Timestep: 60
2 79.0921 79.0919 -3.00147
2 80.808 80.8079 -3.00182
2
Atoms. Timestep: 70
2 79.0893 79.0891 -3.00197
2 80.8108 80.8107 -3.00241
2
Atoms. Timestep: 80
2 79.0862 79.0858 -3.00253
2 80.814 80.8139 -3.00305
2
Atoms. Timestep: 90
2 79.0827 79.0822 -3.00314
2 80.8175 80.8174 -3.00374
2
Atoms. Timestep: 100
2 79.0788 79.0783 -3.0038
2 80.8214 80.8213 -3.00451
2
Atoms. Timestep: 110
2 79.0746 79.074 -3.00452
2 80.8256 80.8255 -3.00537
2
Atoms. Timestep: 120
2 79.0702 79.0694 -3.00529
2 80.8301 80.83 -3.00634
2
Atoms. Timestep: 130
2 79.0654 79.0646 -3.0061
2 80.8349 80.8348 -3.00741
2
Atoms. Timestep: 140
2 79.0604 79.0594 -3.00695
2 80.8399 80.8398 -3.00856
2
Atoms. Timestep: 150
2 79.0552 79.054 -3.00784
2 80.8452 80.8451 -3.00978
2
Atoms. Timestep: 160
2 79.0498 79.0484 -3.00878
2 80.8507 80.8506 -3.01106
2
Atoms. Timestep: 170
2 79.0442 79.0426 -3.00979
2 80.8563 80.8563 -3.0124
2
Atoms. Timestep: 180
2 79.0384 79.0367 -3.01088
2 80.8622 80.8622 -3.0138
2
Atoms. Timestep: 190
2 79.0324 79.0305 -3.01207
2 80.8682 80.8683 -3.01526
2
Atoms. Timestep: 200
2 79.0263 79.0242 -3.01336
2 80.8744 80.8745 -3.01677
2
Atoms. Timestep: 210
2 79.02 79.0178 -3.0148
2 80.8807 80.8809 -3.01834
2
Atoms. Timestep: 220
2 79.0136 79.0113 -3.01642
2 80.8872 80.8874 -3.01995
2
Atoms. Timestep: 230
2 79.007 79.0047 -3.01825
2 80.8937 80.894 -3.02163
2
Atoms. Timestep: 240
2 79.0004 78.998 -3.02033
2 80.9004 80.9007 -3.02338
2
Atoms. Timestep: 250
2 78.9937 78.9912 -3.02268
2 80.9071 80.9075 -3.02519
2
Atoms. Timestep: 260
2 78.987 78.9843 -3.02532
2 80.914 80.9144 -3.02708
2
Atoms. Timestep: 270
2 78.9805 78.9774 -3.02889
2 80.9209 80.9213 -3.02905
2
Atoms. Timestep: 280
2 78.9755 78.971 -3.03674
2 80.9279 80.9283 -3.03109
2
Atoms. Timestep: 290
2 78.9751 78.9646 -3.05285
2 80.935 80.9354 -3.03322
2
Atoms. Timestep: 300
2 78.9788 78.9574 -3.07458
2 80.9422 80.9425 -3.03544
2
Atoms. Timestep: 310
2 78.9844 78.9498 -3.09874
2 80.9494 80.9496 -3.03774
2
Atoms. Timestep: 320
2 78.9907 78.9422 -3.12373
2 80.9567 80.9568 -3.04009
2
Atoms. Timestep: 330
2 78.9972 78.9344 -3.14901
2 80.9641 80.964 -3.04249
2
Atoms. Timestep: 340
2 79.0038 78.9265 -3.17445
2 80.9715 80.9712 -3.04489
2
Atoms. Timestep: 350
2 79.0106 78.9184 -3.20016
2 80.979 80.9785 -3.04731
2
Atoms. Timestep: 360
2 79.0175 78.91 -3.22625
2 80.9865 80.9859 -3.04973
2
Atoms. Timestep: 370
2 79.0247 78.9015 -3.25254
2 80.994 80.9932 -3.05216
2
Atoms. Timestep: 380
2 79.0318 78.8928 -3.279
2 81.0016 81.0006 -3.0546
2
Atoms. Timestep: 390
2 79.039 78.8841 -3.30559
2 81.0092 81.0081 -3.05705
2
Atoms. Timestep: 400
2 79.0462 78.8753 -3.33225
2 81.0168 81.0156 -3.0595
2
Atoms. Timestep: 410
2 79.0534 78.8665 -3.35894
2 81.0245 81.0231 -3.06197
2
Atoms. Timestep: 420
2 79.0606 78.8576 -3.38563
2 81.0322 81.0306 -3.06445
2
Atoms. Timestep: 430
2 79.0677 78.8487 -3.41231
2 81.0399 81.0382 -3.06695
2
Atoms. Timestep: 440
2 79.0748 78.8398 -3.43898
2 81.0477 81.0458 -3.06946
2
Atoms. Timestep: 450
2 79.0819 78.8308 -3.46563
2 81.0555 81.0534 -3.07198
2
Atoms. Timestep: 460
2 79.089 78.8219 -3.49227
2 81.0632 81.061 -3.07451
2
Atoms. Timestep: 470
2 79.096 78.8129 -3.5189
2 81.0711 81.0687 -3.07705
2
Atoms. Timestep: 480
2 79.1031 78.8039 -3.54551
2 81.0789 81.0764 -3.0796
2
Atoms. Timestep: 490
2 79.1101 78.7949 -3.57212
2 81.0867 81.0841 -3.08214
2
Atoms. Timestep: 500
2 79.1171 78.7859 -3.5987
2 81.0946 81.0918 -3.08468
2
Atoms. Timestep: 510
2 79.1241 78.7768 -3.62528
2 81.1024 81.0995 -3.08722
2
Atoms. Timestep: 520
2 79.1311 78.7677 -3.65184
2 81.1103 81.1073 -3.08974
2
Atoms. Timestep: 530
2 79.1381 78.7587 -3.67839
2 81.1182 81.115 -3.09226
2
Atoms. Timestep: 540
2 79.1451 78.7496 -3.70492
2 81.1261 81.1228 -3.09476
2
Atoms. Timestep: 550
2 79.1521 78.7405 -3.73144
2 81.134 81.1306 -3.09725
2
Atoms. Timestep: 560
2 79.159 78.7314 -3.75795
2 81.1419 81.1383 -3.09974
2
Atoms. Timestep: 570
2 79.166 78.7223 -3.78444
2 81.1498 81.1461 -3.10222
2
Atoms. Timestep: 580
2 79.1729 78.7131 -3.81092
2 81.1577 81.1539 -3.1047
2
Atoms. Timestep: 590
2 79.1799 78.704 -3.83739
2 81.1657 81.1617 -3.10718
2
Atoms. Timestep: 600
2 79.1868 78.6949 -3.86385
2 81.1736 81.1695 -3.10966
2
Atoms. Timestep: 610
2 79.1937 78.6857 -3.89029
2 81.1815 81.1774 -3.11212
2
Atoms. Timestep: 620
2 79.2007 78.6766 -3.91671
2 81.1895 81.1852 -3.11458
2
Atoms. Timestep: 630
2 79.2076 78.6674 -3.94313
2 81.1974 81.193 -3.11703
2
Atoms. Timestep: 640
2 79.2145 78.6583 -3.96953
2 81.2054 81.2008 -3.11947
2
Atoms. Timestep: 650
2 79.2214 78.6491 -3.99592
2 81.2133 81.2087 -3.1219
2
Atoms. Timestep: 660
2 79.2284 78.6399 -4.02229
2 81.2213 81.2165 -3.12433
2
Atoms. Timestep: 670
2 79.2353 78.6308 -4.04866
2 81.2292 81.2244 -3.12675
2
Atoms. Timestep: 680
2 79.2422 78.6216 -4.07501
2 81.2372 81.2322 -3.12917
2
Atoms. Timestep: 690
2 79.2491 78.6124 -4.10135
2 81.2452 81.2401 -3.1316
2
Atoms. Timestep: 700
2 79.256 78.6032 -4.12768
2 81.2531 81.2479 -3.13402
2
Atoms. Timestep: 710
2 79.2629 78.5941 -4.15353
2 81.2611 81.2558 -3.13599
2
Atoms. Timestep: 720
2 79.2698 78.5849 -4.17845
2 81.2691 81.2636 -3.13703
2
Atoms. Timestep: 730
2 79.2767 78.5757 -4.2024
2 81.2771 81.2715 -3.13712
2
Atoms. Timestep: 740
2 79.2836 78.5665 -4.22535
2 81.285 81.2793 -3.13622
2
Atoms. Timestep: 750
2 79.2905 78.5574 -4.2473
2 81.293 81.2872 -3.13433
2
Atoms. Timestep: 760
2 79.2974 78.5482 -4.2682
2 81.301 81.2951 -3.13142
2
Atoms. Timestep: 770
2 79.3043 78.539 -4.28804
2 81.309 81.3029 -3.12746
2
Atoms. Timestep: 780
2 79.3112 78.5298 -4.3068
2 81.317 81.3108 -3.12245
2
Atoms. Timestep: 790
2 79.3181 78.5206 -4.32444
2 81.3249 81.3187 -3.11635
2
Atoms. Timestep: 800
2 79.325 78.5115 -4.34096
2 81.3329 81.3265 -3.10913
2
Atoms. Timestep: 810
2 79.3319 78.5023 -4.35632
2 81.3409 81.3344 -3.10079
2
Atoms. Timestep: 820
2 79.3388 78.4931 -4.37049
2 81.3489 81.3423 -3.09129
2
Atoms. Timestep: 830
2 79.3457 78.4839 -4.38347
2 81.3569 81.3501 -3.08062
2
Atoms. Timestep: 840
2 79.3526 78.4747 -4.39522
2 81.3648 81.358 -3.06874
2
Atoms. Timestep: 850
2 79.3595 78.4656 -4.40573
2 81.3728 81.3659 -3.05563
2
Atoms. Timestep: 860
2 79.3664 78.4564 -4.41496
2 81.3808 81.3737 -3.04127
2
Atoms. Timestep: 870
2 79.3733 78.4472 -4.4229
2 81.3888 81.3816 -3.02564
2
Atoms. Timestep: 880
2 79.3802 78.438 -4.42953
2 81.3967 81.3895 -3.00872
2
Atoms. Timestep: 890
2 79.3871 78.4289 -4.43483
2 81.4047 81.3974 -2.99048
2
Atoms. Timestep: 900
2 79.394 78.4197 -4.43876
2 81.4127 81.4052 -2.97092
2
Atoms. Timestep: 910
2 79.4009 78.4105 -4.44132
2 81.4206 81.4131 -2.95
2
Atoms. Timestep: 920
2 79.4078 78.4013 -4.44248
2 81.4286 81.421 -2.92771
2
Atoms. Timestep: 930
2 79.4147 78.3922 -4.44223
2 81.4366 81.4289 -2.90404
2
Atoms. Timestep: 940
2 79.4216 78.383 -4.44053
2 81.4445 81.4368 -2.87898
2
Atoms. Timestep: 950
2 79.4285 78.3738 -4.43738
2 81.4525 81.4446 -2.8525
2
Atoms. Timestep: 960
2 79.4354 78.3646 -4.43274
2 81.4605 81.4525 -2.82462
2
Atoms. Timestep: 970
2 79.4423 78.3555 -4.42662
2 81.4685 81.4604 -2.79531
2
Atoms. Timestep: 980
2 79.4492 78.3463 -4.41897
2 81.4764 81.4683 -2.76458
2
Atoms. Timestep: 990
2 79.4561 78.3371 -4.4098
2 81.4844 81.4762 -2.73242
2
Atoms. Timestep: 1000
2 79.463 78.328 -4.39907
2 81.4924 81.4841 -2.69886
2
Atoms. Timestep: 1010
2 79.4699 78.3188 -4.38678
2 81.5003 81.4921 -2.66389
2
Atoms. Timestep: 1020
2 79.4768 78.3096 -4.3729
2 81.5083 81.5 -2.62753
2
Atoms. Timestep: 1030
2 79.4837 78.3004 -4.35743
2 81.5163 81.5079 -2.58979
2
Atoms. Timestep: 1040
2 79.4906 78.2913 -4.34033
2 81.5242 81.5159 -2.55071
2
Atoms. Timestep: 1050
2 79.4974 78.2821 -4.32161
2 81.5322 81.5239 -2.5103
2
Atoms. Timestep: 1060
2 79.5043 78.2729 -4.30124
2 81.5401 81.5319 -2.46861
2
Atoms. Timestep: 1070
2 79.5112 78.2638 -4.27921
2 81.5481 81.54 -2.42568
2
Atoms. Timestep: 1080
2 79.5181 78.2546 -4.2555
2 81.5561 81.5481 -2.38158
2
Atoms. Timestep: 1090
2 79.525 78.2455 -4.23011
2 81.5641 81.5562 -2.33637
2
Atoms. Timestep: 1100
2 79.5319 78.2363 -4.20302
2 81.5721 81.5644 -2.29012
2
Atoms. Timestep: 1110
2 79.5388 78.2271 -4.17421
2 81.5801 81.5726 -2.24292
2
Atoms. Timestep: 1120
2 79.5457 78.218 -4.14368
2 81.5881 81.5809 -2.19487
2
Atoms. Timestep: 1130
2 79.5526 78.2088 -4.11142
2 81.5961 81.5893 -2.1461
2
Atoms. Timestep: 1140
2 79.5595 78.1996 -4.07741
2 81.604 81.5978 -2.09675
2
Atoms. Timestep: 1150
2 79.5664 78.1905 -4.04165
2 81.6119 81.6063 -2.04692
2
Atoms. Timestep: 1160
2 79.5733 78.1813 -4.00412
2 81.6198 81.615 -1.99672
2
Atoms. Timestep: 1170
2 79.5802 78.1722 -3.96482
2 81.6276 81.6238 -1.94626
2
Atoms. Timestep: 1180
2 79.5871 78.163 -3.92374
2 81.6355 81.6328 -1.89575
2
Atoms. Timestep: 1190
2 79.594 78.1538 -3.88087
2 81.6433 81.642 -1.84541
2
Atoms. Timestep: 1200
2 79.6009 78.1447 -3.83621
2 81.6511 81.6513 -1.7955
2
Atoms. Timestep: 1210
2 79.6078 78.1355 -3.78974
2 81.6588 81.6609 -1.74621
2
Atoms. Timestep: 1220
2 79.6147 78.1264 -3.74146
2 81.6663 81.6707 -1.69767
2
Atoms. Timestep: 1230
2 79.6216 78.1172 -3.69138
2 81.6738 81.6808 -1.64997
2
Atoms. Timestep: 1240
2 79.6284 78.108 -3.63948
2 81.6812 81.6911 -1.60305
2
Atoms. Timestep: 1250
2 79.6353 78.0989 -3.58575
2 81.6885 81.7016 -1.55692
2
Atoms. Timestep: 1260
2 79.6422 78.0897 -3.53021
2 81.6958 81.7123 -1.51159
2
Atoms. Timestep: 1270
2 79.6491 78.0806 -3.47284
2 81.7031 81.7232 -1.46708
2
Atoms. Timestep: 1280
2 79.656 78.0714 -3.41364
2 81.7103 81.7343 -1.42336
2
Atoms. Timestep: 1290
2 79.6629 78.0622 -3.35262
2 81.7175 81.7456 -1.3804
2
Atoms. Timestep: 1300
2 79.6698 78.0531 -3.28976
2 81.7246 81.7571 -1.3382
2
Atoms. Timestep: 1310
2 79.6767 78.0439 -3.22509
2 81.7316 81.7688 -1.29673
2
Atoms. Timestep: 1320
2 79.6836 78.0347 -3.15858
2 81.7385 81.7806 -1.25604
2
Atoms. Timestep: 1330
2 79.6904 78.0256 -3.09025
2 81.7453 81.7926 -1.2162
2
Atoms. Timestep: 1340
2 79.6973 78.0164 -3.02011
2 81.752 81.8047 -1.17727
2
Atoms. Timestep: 1350
2 79.7042 78.0072 -2.94814
2 81.7586 81.817 -1.13933
2
Atoms. Timestep: 1360
2 79.7111 77.9981 -2.87438
2 81.7652 81.8293 -1.10248
2
Atoms. Timestep: 1370
2 79.718 77.9889 -2.79881
2 81.7718 81.8417 -1.06692
2
Atoms. Timestep: 1380
2 79.7249 77.9798 -2.72145
2 81.7782 81.8543 -1.03291
2
Atoms. Timestep: 1390
2 79.7317 77.9706 -2.64231
2 81.7845 81.867 -1.00053
2
Atoms. Timestep: 1400
2 79.7386 77.9614 -2.56141
2 81.7905 81.8799 -0.969849
2
Atoms. Timestep: 1410
2 79.7455 77.9523 -2.47876
2 81.7964 81.893 -0.940919
2
Atoms. Timestep: 1420
2 79.7524 77.9432 -2.39439
2 81.802 81.9063 -0.913748
2
Atoms. Timestep: 1430
2 79.7593 77.934 -2.30832
2 81.8075 81.9198 -0.888274
2
Atoms. Timestep: 1440
2 79.7662 77.9249 -2.22059
2 81.8127 81.9334 -0.864451
2
Atoms. Timestep: 1450
2 79.7731 77.9158 -2.13125
2 81.8178 81.9474 -0.842195
2
Atoms. Timestep: 1460
2 79.78 77.9068 -2.04036
2 81.8227 81.9615 -0.821329
2
Atoms. Timestep: 1470
2 79.7869 77.8978 -1.94798
2 81.8275 81.9757 -0.801725
2
Atoms. Timestep: 1480
2 79.7939 77.8888 -1.85421
2 81.832 81.9901 -0.783319
2
Atoms. Timestep: 1490
2 79.8009 77.8799 -1.75914
2 81.8364 82.0045 -0.76607
2
Atoms. Timestep: 1500
2 79.8079 77.8711 -1.66293
2 81.8405 82.0191 -0.749969
2
Atoms. Timestep: 1510
2 79.8149 77.8625 -1.56575
2 81.8445 82.0338 -0.734955
2
Atoms. Timestep: 1520
2 79.8221 77.854 -1.46782
2 81.8483 82.0486 -0.720955
2
Atoms. Timestep: 1530
2 79.8293 77.8457 -1.36941
2 81.852 82.0634 -0.707859
2
Atoms. Timestep: 1540
2 79.8366 77.8376 -1.27084
2 81.8555 82.0784 -0.695647
2
Atoms. Timestep: 1550
2 79.844 77.83 -1.17253
2 81.8588 82.0933 -0.684333
2
Atoms. Timestep: 1560
2 79.8516 77.8227 -1.07489
2 81.862 82.1083 -0.673907
2
Atoms. Timestep: 1570
2 79.8593 77.8159 -0.978382
2 81.865 82.1233 -0.664354
2
Atoms. Timestep: 1580
2 79.8672 77.8097 -0.883454
2 81.8679 82.1382 -0.655665
2
Atoms. Timestep: 1590
2 79.8754 77.8041 -0.790488
2 81.8707 82.1532 -0.647828
2
Atoms. Timestep: 1600
2 79.8838 77.7991 -0.699817
2 81.8732 82.1681 -0.640862
2
Atoms. Timestep: 1610
2 79.8924 77.7948 -0.611767
2 81.8756 82.1828 -0.634769
2
Atoms. Timestep: 1620
2 79.9013 77.7913 -0.526621
2 81.8778 82.1975 -0.629497
2
Atoms. Timestep: 1630
2 79.9105 77.7886 -0.444625
2 81.8797 82.212 -0.624978
2
Atoms. Timestep: 1640
2 79.9198 77.7866 -0.365997
2 81.8815 82.2263 -0.621111
2
Atoms. Timestep: 1650
2 79.9294 77.7854 -0.2911
2 81.8832 82.2404 -0.61781
2
Atoms. Timestep: 1660
2 79.9392 77.7851 -0.22029
2 81.8846 82.2543 -0.614999
2
Atoms. Timestep: 1670
2 79.9492 77.7856 -0.153641
2 81.8859 82.268 -0.612581
2
Atoms. Timestep: 1680
2 79.9593 77.7869 -0.091193
2 81.8869 82.2814 -0.610461
2
Atoms. Timestep: 1690
2 79.9695 77.7889 -0.0328846
2 81.8878 82.2946 -0.608536
2
Atoms. Timestep: 1700
2 79.9798 77.7916 0.0213036
2 81.8886 82.3075 -0.606713
2
Atoms. Timestep: 1710
2 79.9902 77.7949 0.0713805
2 81.8891 82.3203 -0.604907
2
Atoms. Timestep: 1720
2 80.0007 77.7989 0.11719
2 81.8895 82.3328 -0.603058
2
Atoms. Timestep: 1730
2 80.0113 77.8037 0.158591
2 81.8897 82.3451 -0.601121
2
Atoms. Timestep: 1740
2 80.022 77.8091 0.19569
2 81.8899 82.3572 -0.599042
2
Atoms. Timestep: 1750
2 80.0328 77.8151 0.228548
2 81.8898 82.3691 -0.59678
2
Atoms. Timestep: 1760
2 80.0436 77.8218 0.257346
2 81.8897 82.3807 -0.59429
2
Atoms. Timestep: 1770
2 80.0545 77.829 0.28224
2 81.8894 82.3922 -0.591545
2
Atoms. Timestep: 1780
2 80.0654 77.8367 0.303388
2 81.8891 82.4035 -0.588518
2
Atoms. Timestep: 1790
2 80.0763 77.8449 0.320941
2 81.8886 82.4146 -0.585178
2
Atoms. Timestep: 1800
2 80.0873 77.8536 0.334943
2 81.8881 82.4255 -0.581494
2
Atoms. Timestep: 1810
2 80.0983 77.8627 0.345478
2 81.8874 82.4363 -0.577436
2
Atoms. Timestep: 1820
2 80.1092 77.8722 0.352647
2 81.8867 82.4469 -0.572988
2
Atoms. Timestep: 1830
2 80.1202 77.8822 0.356546
2 81.8859 82.4574 -0.568152
2
Atoms. Timestep: 1840
2 80.1311 77.8924 0.357308
2 81.8851 82.4678 -0.562934
2
Atoms. Timestep: 1850
2 80.142 77.903 0.355049
2 81.8842 82.478 -0.557345
2
Atoms. Timestep: 1860
2 80.1528 77.914 0.349941
2 81.8832 82.488 -0.551393
2
Atoms. Timestep: 1870
2 80.1636 77.9251 0.342182
2 81.8822 82.498 -0.545087
2
Atoms. Timestep: 1880
2 80.1744 77.9366 0.331944
2 81.8811 82.5078 -0.538439
2
Atoms. Timestep: 1890
2 80.1851 77.9482 0.319319
2 81.8799 82.5174 -0.531473
2
Atoms. Timestep: 1900
2 80.1958 77.9601 0.304416
2 81.8787 82.527 -0.524212
2
Atoms. Timestep: 1910
2 80.2064 77.9722 0.287383
2 81.8774 82.5364 -0.516678
2
Atoms. Timestep: 1920
2 80.2169 77.9845 0.268393
2 81.8761 82.5457 -0.508891
2
Atoms. Timestep: 1930
2 80.2274 77.997 0.247608
2 81.8747 82.5549 -0.500876
2
Atoms. Timestep: 1940
2 80.2379 78.0096 0.225175
2 81.8733 82.564 -0.49266
2
Atoms. Timestep: 1950
2 80.2482 78.0223 0.201217
2 81.8718 82.5729 -0.484278
2
Atoms. Timestep: 1960
2 80.2586 78.0352 0.175833
2 81.8702 82.5818 -0.475767
2
Atoms. Timestep: 1970
2 80.2689 78.0482 0.149092
2 81.8686 82.5905 -0.46716
2
Atoms. Timestep: 1980
2 80.2791 78.0614 0.121075
2 81.8669 82.599 -0.458484
2
Atoms. Timestep: 1990
2 80.2893 78.0746 0.0918657
2 81.8652 82.6075 -0.449762
2
Atoms. Timestep: 2000
2 80.2994 78.0879 0.0615831
2 81.8634 82.6158 -0.441013
2
Atoms. Timestep: 2010
2 80.3095 78.1013 0.0303453
2 81.8616 82.624 -0.432265
2
Atoms. Timestep: 2020
2 80.3195 78.1148 -0.00174449
2 81.8597 82.6321 -0.42355
2
Atoms. Timestep: 2030
2 80.3295 78.1284 -0.0345961
2 81.8578 82.64 -0.414906
2
Atoms. Timestep: 2040
2 80.3395 78.142 -0.0681453
2 81.8558 82.6479 -0.406376
2
Atoms. Timestep: 2050
2 80.3494 78.1556 -0.102327
2 81.8537 82.6556 -0.398005
2
Atoms. Timestep: 2060
2 80.3593 78.1693 -0.137086
2 81.8516 82.6631 -0.389838
2
Atoms. Timestep: 2070
2 80.3692 78.1831 -0.17237
2 81.8495 82.6706 -0.381922
2
Atoms. Timestep: 2080
2 80.379 78.1969 -0.208132
2 81.8473 82.6779 -0.374306
2
Atoms. Timestep: 2090
2 80.3889 78.2107 -0.244319
2 81.845 82.685 -0.36704
2
Atoms. Timestep: 2100
2 80.3987 78.2246 -0.280874
2 81.8426 82.692 -0.36017
2
Atoms. Timestep: 2110
2 80.4084 78.2385 -0.317753
2 81.8402 82.6989 -0.35375
2
Atoms. Timestep: 2120
2 80.4182 78.2524 -0.354908
2 81.8378 82.7056 -0.347822
2
Atoms. Timestep: 2130
2 80.4279 78.2664 -0.392299
2 81.8352 82.7122 -0.342427
2
Atoms. Timestep: 2140
2 80.4376 78.2804 -0.429893
2 81.8326 82.7186 -0.337608
2
Atoms. Timestep: 2150
2 80.4474 78.2944 -0.467657
2 81.8299 82.7248 -0.333399
2
Atoms. Timestep: 2160
2 80.4571 78.3084 -0.505565
2 81.8272 82.7309 -0.329833
2
Atoms. Timestep: 2170
2 80.4667 78.3224 -0.543587
2 81.8244 82.7369 -0.326943
2
Atoms. Timestep: 2180
2 80.4764 78.3364 -0.581695
2 81.8215 82.7426 -0.324762
2
Atoms. Timestep: 2190
2 80.4861 78.3505 -0.619868
2 81.8186 82.7483 -0.323328
2
Atoms. Timestep: 2200
2 80.4958 78.3646 -0.658085
2 81.8156 82.7537 -0.322665
2
Atoms. Timestep: 2210
2 80.5054 78.3786 -0.696329
2 81.8126 82.759 -0.3228
2
Atoms. Timestep: 2220
2 80.5151 78.3927 -0.734587
2 81.8094 82.7642 -0.323746
2
Atoms. Timestep: 2230
2 80.5247 78.4068 -0.772847
2 81.8063 82.7691 -0.325513
2
Atoms. Timestep: 2240
2 80.5344 78.4209 -0.8111
2 81.803 82.774 -0.328102
2
Atoms. Timestep: 2250
2 80.544 78.435 -0.849338
2 81.7997 82.7787 -0.331507
2
Atoms. Timestep: 2260
2 80.5536 78.4492 -0.887555
2 81.7964 82.7832 -0.335723
2
Atoms. Timestep: 2270
2 80.5633 78.4633 -0.925746
2 81.793 82.7877 -0.340749
2
Atoms. Timestep: 2280
2 80.5729 78.4774 -0.963908
2 81.7896 82.792 -0.34659
2
Atoms. Timestep: 2290
2 80.5825 78.4915 -1.00204
2 81.7861 82.7961 -0.353257
2
Atoms. Timestep: 2300
2 80.5922 78.5056 -1.04014
2 81.7825 82.8002 -0.360756
2
Atoms. Timestep: 2310
2 80.6018 78.5198 -1.0782
2 81.7789 82.8041 -0.369089
2
Atoms. Timestep: 2320
2 80.6114 78.5339 -1.11624
2 81.7753 82.8079 -0.378251
2
Atoms. Timestep: 2330
2 80.621 78.548 -1.15424
2 81.7716 82.8116 -0.388236
2
Atoms. Timestep: 2340
2 80.6307 78.5622 -1.19221
2 81.7679 82.8152 -0.399029
2
Atoms. Timestep: 2350
2 80.6403 78.5763 -1.23016
2 81.7641 82.8187 -0.410611
2
Atoms. Timestep: 2360
2 80.6499 78.5904 -1.26808
2 81.7603 82.822 -0.422966
2
Atoms. Timestep: 2370
2 80.6595 78.6046 -1.30598
2 81.7565 82.8253 -0.436081
2
Atoms. Timestep: 2380
2 80.6691 78.6187 -1.34386
2 81.7526 82.8284 -0.449938
2
Atoms. Timestep: 2390
2 80.6788 78.6329 -1.38171
2 81.7487 82.8315 -0.464524
2
Atoms. Timestep: 2400
2 80.6884 78.647 -1.41955
2 81.7448 82.8345 -0.479818
2
Atoms. Timestep: 2410
2 80.698 78.6611 -1.45737
2 81.7408 82.8374 -0.495798
2
Atoms. Timestep: 2420
2 80.7076 78.6753 -1.49517
2 81.7368 82.8402 -0.512438
2
Atoms. Timestep: 2430
2 80.7172 78.6894 -1.53296
2 81.7328 82.8429 -0.529711
2
Atoms. Timestep: 2440
2 80.7268 78.7035 -1.57073
2 81.7288 82.8455 -0.547594
2
Atoms. Timestep: 2450
2 80.7364 78.7177 -1.60849
2 81.7248 82.8481 -0.566062
2
Atoms. Timestep: 2460
2 80.7461 78.7318 -1.64623
2 81.7207 82.8506 -0.585089
2
Atoms. Timestep: 2470
2 80.7557 78.7459 -1.68396
2 81.7166 82.8531 -0.604648
2
Atoms. Timestep: 2480
2 80.7653 78.7601 -1.72168
2 81.7125 82.8555 -0.624712
2
Atoms. Timestep: 2490
2 80.7749 78.7742 -1.75937
2 81.7084 82.8578 -0.645261
2
Atoms. Timestep: 2500
2 80.7845 78.7883 -1.79705
2 81.7043 82.8601 -0.666275
2
Atoms. Timestep: 2510
2 80.7941 78.8025 -1.83471
2 81.7002 82.8624 -0.687732
2
Atoms. Timestep: 2520
2 80.8037 78.8166 -1.87234
2 81.696 82.8646 -0.709608
2
Atoms. Timestep: 2530
2 80.8133 78.8307 -1.90994
2 81.6919 82.8667 -0.731873
2
Atoms. Timestep: 2540
2 80.823 78.8449 -1.94751
2 81.6877 82.8688 -0.7545
2
Atoms. Timestep: 2550
2 80.8326 78.859 -1.98505
2 81.6835 82.8709 -0.77746
2
Atoms. Timestep: 2560
2 80.8422 78.8731 -2.02254
2 81.6793 82.8729 -0.800728
2
Atoms. Timestep: 2570
2 80.8518 78.8873 -2.05999
2 81.6752 82.8749 -0.824281
2
Atoms. Timestep: 2580
2 80.8614 78.9014 -2.09738
2 81.671 82.8768 -0.848094
2
Atoms. Timestep: 2590
2 80.871 78.9155 -2.13472
2 81.6668 82.8788 -0.872145
2
Atoms. Timestep: 2600
2 80.8806 78.9296 -2.17198
2 81.6626 82.8807 -0.896406
2
Atoms. Timestep: 2610
2 80.8902 78.9438 -2.20917
2 81.6583 82.8825 -0.920853
2
Atoms. Timestep: 2620
2 80.8998 78.9579 -2.24628
2 81.6541 82.8844 -0.945459
2
Atoms. Timestep: 2630
2 80.9094 78.972 -2.28329
2 81.6499 82.8862 -0.970199
2
Atoms. Timestep: 2640
2 80.9191 78.9861 -2.3202
2 81.6457 82.888 -0.995047
2
Atoms. Timestep: 2650
2 80.9287 79.0003 -2.35699
2 81.6414 82.8898 -1.01998
2
Atoms. Timestep: 2660
2 80.9383 79.0144 -2.39366
2 81.6372 82.8915 -1.04497
2
Atoms. Timestep: 2670
2 80.9479 79.0285 -2.43019
2 81.6329 82.8933 -1.07
2
Atoms. Timestep: 2680
2 80.9575 79.0426 -2.46658
2 81.6287 82.895 -1.09504
2
Atoms. Timestep: 2690
2 80.9671 79.0567 -2.5028
2 81.6244 82.8967 -1.12007
2
Atoms. Timestep: 2700
2 80.9767 79.0709 -2.53885
2 81.6202 82.8984 -1.14507
2
Atoms. Timestep: 2710
2 80.9863 79.085 -2.57471
2 81.6159 82.9001 -1.17001
2
Atoms. Timestep: 2720
2 80.9959 79.0991 -2.61037
2 81.6117 82.9017 -1.19488
2
Atoms. Timestep: 2730
2 81.0055 79.1132 -2.64581
2 81.6074 82.9034 -1.21965
2
Atoms. Timestep: 2740
2 81.0151 79.1273 -2.68102
2 81.6031 82.905 -1.2443
2
Atoms. Timestep: 2750
2 81.0247 79.1415 -2.71599
2 81.5989 82.9067 -1.2688
2
Atoms. Timestep: 2760
2 81.0343 79.1556 -2.75069
2 81.5946 82.9083 -1.29314
2
Atoms. Timestep: 2770
2 81.0439 79.1697 -2.7851
2 81.5903 82.9099 -1.31728
2
Atoms. Timestep: 2780
2 81.0535 79.1838 -2.81923
2 81.5861 82.9115 -1.34122
2
Atoms. Timestep: 2790
2 81.0631 79.1979 -2.85303
2 81.5818 82.9131 -1.36492
2
Atoms. Timestep: 2800
2 81.0727 79.212 -2.8865
2 81.5775 82.9147 -1.38836
2
Atoms. Timestep: 2810
2 81.0823 79.2262 -2.91963
2 81.5732 82.9163 -1.41152
2
Atoms. Timestep: 2820
2 81.0919 79.2403 -2.95238
2 81.569 82.9178 -1.43437
2
Atoms. Timestep: 2830
2 81.1015 79.2544 -2.98474
2 81.5647 82.9194 -1.4569
2
Atoms. Timestep: 2840
2 81.1111 79.2685 -3.01669
2 81.5604 82.921 -1.47908
2
Atoms. Timestep: 2850
2 81.1208 79.2826 -3.04821
2 81.5561 82.9225 -1.50089
2
Atoms. Timestep: 2860
2 81.1304 79.2968 -3.07928
2 81.5519 82.9241 -1.52229
2
Atoms. Timestep: 2870
2 81.14 79.3109 -3.10989
2 81.5476 82.9256 -1.54328
2
Atoms. Timestep: 2880
2 81.1496 79.325 -3.14
2 81.5433 82.9271 -1.56381
2
Atoms. Timestep: 2890
2 81.1592 79.3391 -3.1696
2 81.539 82.9287 -1.58387
2
Atoms. Timestep: 2900
2 81.1688 79.3532 -3.19866
2 81.5348 82.9302 -1.60344
2
Atoms. Timestep: 2910
2 81.1784 79.3673 -3.22717
2 81.5305 82.9317 -1.62248
2
Atoms. Timestep: 2920
2 81.188 79.3814 -3.2551
2 81.5262 82.9332 -1.64097
2
Atoms. Timestep: 2930
2 81.1976 79.3956 -3.28242
2 81.5219 82.9348 -1.65889
2
Atoms. Timestep: 2940
2 81.2072 79.4097 -3.30913
2 81.5177 82.9363 -1.67621
2
Atoms. Timestep: 2950
2 81.2168 79.4238 -3.33519
2 81.5134 82.9378 -1.69291
2
Atoms. Timestep: 2960
2 81.2264 79.4379 -3.36058
2 81.5091 82.9393 -1.70896
2
Atoms. Timestep: 2970
2 81.236 79.452 -3.38528
2 81.5048 82.9408 -1.72434
2
Atoms. Timestep: 2980
2 81.2456 79.4661 -3.40926
2 81.5006 82.9423 -1.73901
2
Atoms. Timestep: 2990
2 81.2552 79.4802 -3.4325
2 81.4963 82.9438 -1.75296
2
Atoms. Timestep: 3000
2 81.2648 79.4944 -3.45498
2 81.492 82.9453 -1.76616
2
Atoms. Timestep: 3010
2 81.2744 79.5085 -3.47667
2 81.4878 82.9468 -1.77859
2
Atoms. Timestep: 3020
2 81.284 79.5226 -3.49755
2 81.4835 82.9483 -1.79022
2
Atoms. Timestep: 3030
2 81.2936 79.5367 -3.5176
2 81.4792 82.9498 -1.80102
2
Atoms. Timestep: 3040
2 81.3031 79.5508 -3.53678
2 81.4749 82.9513 -1.81098
2
Atoms. Timestep: 3050
2 81.3127 79.5649 -3.55509
2 81.4707 82.9527 -1.82006
2
Atoms. Timestep: 3060
2 81.3223 79.579 -3.57249
2 81.4664 82.9542 -1.82824
2
Atoms. Timestep: 3070
2 81.3319 79.5931 -3.58896
2 81.4621 82.9557 -1.8355
2
Atoms. Timestep: 3080
2 81.3415 79.6073 -3.60447
2 81.4579 82.9572 -1.84181
2
Atoms. Timestep: 3090
2 81.3511 79.6214 -3.619
2 81.4536 82.9587 -1.84715
2
Atoms. Timestep: 3100
2 81.3607 79.6355 -3.63253
2 81.4493 82.9601 -1.85149
2
Atoms. Timestep: 3110
2 81.3703 79.6496 -3.64503
2 81.445 82.9616 -1.85481
2
Atoms. Timestep: 3120
2 81.3799 79.6637 -3.65649
2 81.4408 82.9631 -1.85709
2
Atoms. Timestep: 3130
2 81.3895 79.6778 -3.66686
2 81.4365 82.9646 -1.85829
2
Atoms. Timestep: 3140
2 81.3991 79.6919 -3.67614
2 81.4322 82.966 -1.85841
2
Atoms. Timestep: 3150
2 81.4087 79.706 -3.6843
2 81.428 82.9675 -1.85742
2
Atoms. Timestep: 3160
2 81.4183 79.7201 -3.69131
2 81.4237 82.969 -1.85529
2
Atoms. Timestep: 3170
2 81.4279 79.7342 -3.69715
2 81.4194 82.9705 -1.852
2
Atoms. Timestep: 3180
2 81.4375 79.7483 -3.7018
2 81.4152 82.9719 -1.84753
2
Atoms. Timestep: 3190
2 81.4471 79.7624 -3.70524
2 81.4109 82.9734 -1.84186
2
Atoms. Timestep: 3200
2 81.4567 79.7765 -3.70744
2 81.4066 82.9748 -1.83496
2
Atoms. Timestep: 3210
2 81.4663 79.7906 -3.70838
2 81.4024 82.9763 -1.82682
2
Atoms. Timestep: 3220
2 81.4758 79.8048 -3.70803
2 81.3981 82.9778 -1.81742
2
Atoms. Timestep: 3230
2 81.4854 79.8189 -3.70639
2 81.3938 82.9792 -1.80673
2
Atoms. Timestep: 3240
2 81.495 79.833 -3.70341
2 81.3896 82.9807 -1.79474
2
Atoms. Timestep: 3250
2 81.5046 79.8471 -3.69909
2 81.3853 82.9821 -1.78143
2
Atoms. Timestep: 3260
2 81.5142 79.8612 -3.69341
2 81.3811 82.9836 -1.76678
2
Atoms. Timestep: 3270
2 81.5238 79.8753 -3.68633
2 81.3768 82.985 -1.75078
2
Atoms. Timestep: 3280
2 81.5334 79.8894 -3.67784
2 81.3725 82.9865 -1.73341
2
Atoms. Timestep: 3290
2 81.543 79.9035 -3.66793
2 81.3683 82.9879 -1.71466
2
Atoms. Timestep: 3300
2 81.5526 79.9175 -3.65656
2 81.364 82.9893 -1.69452
2
Atoms. Timestep: 3310
2 81.5622 79.9316 -3.64373
2 81.3598 82.9907 -1.67298
2
Atoms. Timestep: 3320
2 81.5717 79.9457 -3.62941
2 81.3555 82.9922 -1.65003
2
Atoms. Timestep: 3330
2 81.5813 79.9598 -3.61358
2 81.3513 82.9936 -1.62566
2
Atoms. Timestep: 3340
2 81.5909 79.9739 -3.59623
2 81.347 82.995 -1.59987
2
Atoms. Timestep: 3350
2 81.6005 79.988 -3.57734
2 81.3428 82.9964 -1.57267
2
Atoms. Timestep: 3360
2 81.6101 80.0021 -3.55689
2 81.3385 82.9977 -1.54405
2
Atoms. Timestep: 3370
2 81.6197 80.0162 -3.53486
2 81.3343 82.9991 -1.51403
2
Atoms. Timestep: 3380
2 81.6293 80.0303 -3.51124
2 81.33 83.0004 -1.48263
2
Atoms. Timestep: 3390
2 81.6389 80.0444 -3.48601
2 81.3258 83.0017 -1.44985
2
Atoms. Timestep: 3400
2 81.6484 80.0585 -3.45916
2 81.3216 83.003 -1.41574
2
Atoms. Timestep: 3410
2 81.658 80.0725 -3.43067
2 81.3174 83.0043 -1.38032
2
Atoms. Timestep: 3420
2 81.6676 80.0866 -3.40053
2 81.3132 83.0055 -1.34363
2
Atoms. Timestep: 3430
2 81.6772 80.1007 -3.36872
2 81.309 83.0066 -1.30574
2
Atoms. Timestep: 3440
2 81.6868 80.1148 -3.33522
2 81.3048 83.0077 -1.2667
2
Atoms. Timestep: 3450
2 81.6964 80.1289 -3.30004
2 81.3007 83.0088 -1.2266
2
Atoms. Timestep: 3460
2 81.706 80.143 -3.26315
2 81.2966 83.0098 -1.18553
2
Atoms. Timestep: 3470
2 81.7156 80.157 -3.22454
2 81.2925 83.0106 -1.1436
2
Atoms. Timestep: 3480
2 81.7251 80.1711 -3.1842
2 81.2885 83.0114 -1.10091
2
Atoms. Timestep: 3490
2 81.7347 80.1852 -3.14213
2 81.2845 83.0121 -1.05759
2
Atoms. Timestep: 3500
2 81.7443 80.1993 -3.0983
2 81.2805 83.0126 -1.01377
2
Atoms. Timestep: 3510
2 81.7539 80.2133 -3.05272
2 81.2766 83.013 -0.96959
2
Atoms. Timestep: 3520
2 81.7635 80.2274 -3.00537
2 81.2727 83.0132 -0.925201
2
Atoms. Timestep: 3530
2 81.7731 80.2415 -2.95624
2 81.2689 83.0133 -0.88072
2
Atoms. Timestep: 3540
2 81.7826 80.2555 -2.90533
2 81.2652 83.0131 -0.836251
2
Atoms. Timestep: 3550
2 81.7922 80.2696 -2.85263
2 81.2615 83.0128 -0.79189
2
Atoms. Timestep: 3560
2 81.8018 80.2836 -2.79813
2 81.2579 83.0123 -0.747741
2
Atoms. Timestep: 3570
2 81.8114 80.2977 -2.74183
2 81.2544 83.0116 -0.703899
2
Atoms. Timestep: 3580
2 81.821 80.3118 -2.68373
2 81.2509 83.0107 -0.66045
2
Atoms. Timestep: 3590
2 81.8306 80.3258 -2.62381
2 81.2476 83.0096 -0.617475
2
Atoms. Timestep: 3600
2 81.8402 80.3399 -2.56207
2 81.2443 83.0083 -0.575026
2
Atoms. Timestep: 3610
2 81.8498 80.3539 -2.49852
2 81.2411 83.0068 -0.533148
2
Atoms. Timestep: 3620
2 81.8593 80.3679 -2.43314
2 81.2379 83.0051 -0.491913
2
Atoms. Timestep: 3630
2 81.8689 80.382 -2.36594
2 81.2349 83.0032 -0.451393
2
Atoms. Timestep: 3640
2 81.8785 80.396 -2.29692
2 81.2319 83.0011 -0.411645
2
Atoms. Timestep: 3650
2 81.8881 80.41 -2.22607
2 81.2291 82.9988 -0.37271
2
Atoms. Timestep: 3660
2 81.8977 80.424 -2.1534
2 81.2263 82.9962 -0.33463
2
Atoms. Timestep: 3670
2 81.9073 80.438 -2.07891
2 81.2236 82.9935 -0.297449
2
Atoms. Timestep: 3680
2 81.9169 80.452 -2.0026
2 81.221 82.9905 -0.261212
2
Atoms. Timestep: 3690
2 81.9265 80.466 -1.92447
2 81.2185 82.9873 -0.225978
2
Atoms. Timestep: 3700
2 81.9361 80.48 -1.84454
2 81.2161 82.9839 -0.191806
2
Atoms. Timestep: 3710
2 81.9457 80.4939 -1.76279
2 81.2138 82.9802 -0.158714
2
Atoms. Timestep: 3720
2 81.9553 80.5078 -1.67925
2 81.2115 82.9763 -0.1267
2
Atoms. Timestep: 3730
2 81.9649 80.5217 -1.59392
2 81.2094 82.9722 -0.0957905
2
Atoms. Timestep: 3740
2 81.9746 80.5356 -1.50681
2 81.2074 82.9679 -0.0660214
2
Atoms. Timestep: 3750
2 81.9842 80.5495 -1.41794
2 81.2055 82.9634 -0.0374012
2
Atoms. Timestep: 3760
2 81.9939 80.5633 -1.32731
2 81.2036 82.9587 -0.00995061
2
Atoms. Timestep: 3770
2 82.0035 80.577 -1.23496
2 81.2019 82.9538 0.0163544
2
Atoms. Timestep: 3780
2 82.0132 80.5907 -1.1409
2 81.2003 82.9487 0.0415248
2
Atoms. Timestep: 3790
2 82.0229 80.6043 -1.04516
2 81.1988 82.9435 0.0655264
2
Atoms. Timestep: 3800
2 82.0326 80.6178 -0.947796
2 81.1973 82.9382 0.0883475
2
Atoms. Timestep: 3810
2 82.0424 80.6312 -0.848842
2 81.1959 82.9327 0.109939
2
Atoms. Timestep: 3820
2 82.0522 80.6445 -0.748369
2 81.1945 82.9272 0.130303
2
Atoms. Timestep: 3830
2 82.0621 80.6575 -0.646461
2 81.1932 82.9216 0.149435
2
Atoms. Timestep: 3840
2 82.072 80.6704 -0.543229
2 81.1919 82.916 0.167357
2
Atoms. Timestep: 3850
2 82.082 80.6829 -0.438827
2 81.1906 82.9104 0.184062
2
Atoms. Timestep: 3860
2 82.092 80.6952 -0.333461
2 81.1893 82.905 0.199521
2