ITEM: TIMESTEP
0
ITEM: NUMBER OF ATOMS
34932
ITEM: BOX BOUNDS ss ss ss
-1.22802 299.638
0 300.616
0 0
ITEM: ATOMS id type xu yu zu
 1 1 0 0 0
 2 1 -1.22802 0.709 0
 3 1 -1.22802 2.127 0
 4 1 0 2.836 0
 5 1 2.45605 0 0
 6 1 1.22802 0.709 0
 7 1 1.22802 2.127 0
 8 1 2.45605 2.836 0
 9 1 4.9121 0 0
 10 1 3.68407 0.709 0
 11 1 3.68407 2.127 0
 12 1 4.9121 2.836 0
 13 1 7.36814 0 0
 14 1 6.14012 0.709 0
 15 1 6.14012 2.127 0
 16 1 7.36814 2.836 0
 17 1 9.82419 0 0
 18 1 8.59617 0.709 0
 19 1 8.59617 2.127 0
 20 1 9.82419 2.836 0
 21 1 12.2802 0 0
 22 1 11.0522 0.709 0
 23 1 11.0522 2.127 0
 24 1 12.2802 2.836 0
 25 1 14.7363 0 0
 26 1 13.5083 0.709 0
 27 1 13.5083 2.127 0
 28 1 14.7363 2.836 0
 29 1 17.1923 0 0
 30 1 15.9643 0.709 0
 31 1 15.9643 2.127 0
 32 1 17.1923 2.836 0
 33 1 19.6484 0 0
 34 1 18.4204 0.709 0
 35 1 18.4204 2.127 0
 36 1 19.6484 2.836 0
 37 1 22.1044 0 0
 38 1 20.8764 0.709 0
 39 1 20.8764 2.127 0
 40 1 22.1044 2.836 0
 41 1 24.5605 0 0
 42 1 23.3325 0.709 0
 43 1 23.3325 2.127 0
 44 1 24.5605 2.836 0
 45 1 27.0165 0 0
 46 1 25.7885 0.709 0
 47 1 25.7885 2.127 0
 48 1 27.0165 2.836 0
 49 1 29.4726 0 0
 50 1 28.2446 0.709 0
 51 1 28.2446 2.127 0
 52 1 29.4726 2.836 0
 53 1 31.9286 0 0
 54 1 30.7006 0.709 0
 55 1 30.7006 2.127 0
 56 1 31.9286 2.836 0
 57 1 34.3847 0 0
 58 1 33.1566 0.709 0
 59 1 33.1566 2.127 0
 60 1 34.3847 2.836 0
 61 1 36.8407 0 0
 62 1 35.6127 0.709 0
 63 1 35.6127 2.127 0
 64 1 36.8407 2.836 0
 65 1 39.2968 0 0
 66 1 38.0687 0.709 0
 67 1 38.0687 2.127 0
 68 1 39.2968 2.836 0
 69 1 41.7528 0 0
 70 1 40.5248 0.709 0
 71 1 40.5248 2.127 0
 72 1 41.7528 2.836 0
 73 1 44.2089 0 0
 74 1 42.9808 0.709 0
 75 1 42.9808 2.127 0
 76 1 44.2089 2.836 0
 77 1 46.6649 0 0
 78 1 45.4369 0.709 0
 79 1 45.4369 2.127 0
 80 1 46.6649 2.836 0
 81 1 49.121 0 0
 82 1 47.8929 0.709 0
 83 1 47.8929 2.127 0
 84 1 49.121 2.836 0
 85 1 51.577 0 0
 86 1 50.349 0.709 0
 87 1 50.349 2.127 0
 88 1 51.577 2.836 0
 89 1 54.0331 0 0
 90 1 52.805 0.709 0
 91 1 52.805 2.127 0
 92 1 54.0331 2.836 0
 93 1 56.4891 0 0
 94 1 55.2611 0.709 0
 95 1 55.2611 2.127 0
 96 1 56.4891 2.836 0
 97 1 58.9452 0 0
 98 1 57.7171 0.709 0
 99 1 57.7171 2.127 0
 100 1 58.9452 2.836 0
 101 1 61.4012 0 0
 102 1 60.1732 0.709 0
 103 1 60.1732 2.127 0
 104 1 61.4012 2.836 0
 105 1 63.8573 0 0
 106 1 62.6292 0.709 0
 107 1 62.6292 2.127 0
 108 1 63.8573 2.836 0
 109 1 66.3133 0 0
 110 1 65.0853 0.709 0
 111 1 65.0853 2.127 0
 112 1 66.3133 2.836 0
 113 1 68.7693 0 0
 114 1 67.5413 0.709 0
 115 1 67.5413 2.127 0
 116 1 68.7693 2.836 0
 117 1 71.2254 0 0
 118 1 69.9974 0.709 0
 119 1 69.9974 2.127 0
 120 1 71.2254 2.836 0
 121 1 73.6814 0 0
 122 1 72.4534 0.709 0
 123 1 72.4534 2.127 0
 124 1 73.6814 2.836 0
 125 1 76.1375 0 0
 126 1 74.9095 0.709 0
 127 1 74.9095 2.127 0
 128 1 76.1375 2.836 0
 129 1 78.5935 0 0
 130 1 77.3655 0.709 0
 131 1 77.3655 2.127 0
 132 1 78.5935 2.836 0
 133 1 81.0496 0 0
 134 1 79.8216 0.709 0
 135 1 79.8216 2.127 0
 136 1 81.0496 2.836 0
 137 1 83.5056 0 0
 138 1 82.2776 0.709 0
 139 1 82.2776 2.127 0
 140 1 83.5056 2.836 0
 141 1 85.9617 0 0
 142 1 84.7337 0.709 0
 143 1 84.7337 2.127 0
 144 1 85.9617 2.836 0
 145 1 88.4177 0 0
 146 1 87.1897 0.709 0
 147 1 87.1897 2.127 0
 148 1 88.4177 2.836 0
 149 1 90.8738 0 0
 150 1 89.6458 0.709 0
 151 1 89.6458 2.127 0
 152 1 90.8738 2.836 0
 153 1 93.3298 0 0
 154 1 92.1018 0.709 0
 155 1 92.1018 2.127 0
 156 1 93.3298 2.836 0
 157 1 95.7859 0 0
 158 1 94.5578 0.709 0
 159 1 94.5578 2.127 0
 160 1 95.7859 2.836 0
 161 1 98.2419 0 0
 162 1 97.0139 0.709 0
 163 1 97.0139 2.127 0
 164 1 98.2419 2.836 0
 165 1 100.698 0 0
 166 1 99.4699 0.709 0
 167 1 99.4699 2.127 0
 168 1 100.698 2.836 0
 169 1 103.154 0 0
 170 1 101.926 0.709 0
 171 1 101.926 2.127 0
 172 1 103.154 2.836 0
 173 1 105.61 0 0
 174 1 104.382 0.709 0
 175 1 104.382 2.127 0
 176 1 105.61 2.836 0
 177 1 108.066 0 0
 178 1 106.838 0.709 0
 179 1 106.838 2.127 0
 180 1 108.066 2.836 0
 181 1 110.522 0 0
 182 1 109.294 0.709 0
 183 1 109.294 2.127 0
 184 1 110.522 2.836 0
 185 1 112.978 0 0
 186 1 111.75 0.709 0
 187 1 111.75 2.127 0
 188 1 112.978 2.836 0
 189 1 115.434 0 0
 190 1 114.206 0.709 0
 191 1 114.206 2.127 0
 192 1 115.434 2.836 0
 193 1 117.89 0 0
 194 1 116.662 0.709 0
 195 1 116.662 2.127 0
 196 1 117.89 2.836 0
 197 1 120.346 0 0
 198 1 119.118 0.709 0
 199 1 119.118 2.127 0
 200 1 120.346 2.836 0
 201 1 122.802 0 0
 202 1 121.574 0.709 0
 203 1 121.574 2.127 0
 204 1 122.802 2.836 0
 205 1 125.258 0 0
 206 1 124.03 0.709 0
 207 1 124.03 2.127 0
 208 1 125.258 2.836 0
 209 1 127.715 0 0
 210 1 126.486 0.709 0
 211 1 126.486 2.127 0
 212 1 127.715 2.836 0
 213 1 130.171 0 0
 214 1 128.943 0.709 0
 215 1 128.943 2.127 0
 216 1 130.171 2.836 0
 217 1 132.627 0 0
 218 1 131.399 0.709 0
 219 1 131.399 2.127 0
 220 1 132.627 2.836 0
 221 1 135.083 0 0
 222 1 133.855 0.709 0
 223 1 133.855 2.127 0
 224 1 135.083 2.836 0
 225 1 137.539 0 0
 226 1 136.311 0.709 0
 227 1 136.311 2.127 0
 228 1 137.539 2.836 0
 229 1 139.995 0 0
 230 1 138.767 0.709 0
 231 1 138.767 2.127 0
 232 1 139.995 2.836 0
 233 1 142.451 0 0
 234 1 141.223 0.709 0
 235 1 141.223 2.127 0
 236 1 142.451 2.836 0
 237 1 144.907 0 0
 238 1 143.679 0.709 0
 239 1 143.679 2.127 0
 240 1 144.907 2.836 0
 241 1 147.363 0 0
 242 1 146.135 0.709 0
 243 1 146.135 2.127 0
 244 1 147.363 2.836 0
 245 1 149.819 0 0
 246 1 148.591 0.709 0
 247 1 148.591 2.127 0
 248 1 149.819 2.836 0
 249 1 152.275 0 0
 250 1 151.047 0.709 0
 251 1 151.047 2.127 0
 252 1 152.275 2.836 0
 253 1 154.731 0 0
 254 1 153.503 0.709 0
 255 1 153.503 2.127 0
 256 1 154.731 2.836 0
 257 1 157.187 0 0
 258 1 155.959 0.709 0
 259 1 155.959 2.127 0
 260 1 157.187 2.836 0
 261 1 159.643 0 0
 262 1 158.415 0.709 0
 263 1 158.415 2.127 0
 264 1 159.643 2.836 0
 265 1 162.099 0 0
 266 1 160.871 0.709 0
 267 1 160.871 2.127 0
 268 1 162.099 2.836 0
 269 1 164.555 0 0
 270 1 163.327 0.709 0
 271 1 163.327 2.127 0
 272 1 164.555 2.836 0
 273 1 167.011 0 0
 274 1 165.783 0.709 0
 275 1 165.783 2.127 0
 276 1 167.011 2.836 0
 277 1 169.467 0 0
 278 1 168.239 0.709 0
 279 1 168.239 2.127 0
 280 1 169.467 2.836 0
 281 1 171.923 0 0
 282 1 170.695 0.709 0
 283 1 170.695 2.127 0
 284 1 171.923 2.836 0
 285 1 174.379 0 0
 286 1 173.151 0.709 0
 287 1 173.151 2.127 0
 288 1 174.379 2.836 0
 289 1 176.835 0 0
 290 1 175.607 0.709 0
 291 1 175.607 2.127 0
 292 1 176.835 2.836 0
 293 1 179.292 0 0
 294 1 178.063 0.709 0
 295 1 178.063 2.127 0
 296 1 179.292 2.836 0
 297 1 181.748 0 0
 298 1 180.52 0.709 0
 299 1 180.52 2.127 0
 300 1 181.748 2.836 0
 301 1 184.204 0 0
 302 1 182.976 0.709 0
 303 1 182.976 2.127 0
 304 1 184.204 2.836 0
 305 1 186.66 0 0
 306 1 185.432 0.709 0
 307 1 185.432 2.127 0
 308 1 186.66 2.836 0
 309 1 189.116 0 0
 310 1 187.888 0.709 0
 311 1 187.888 2.127 0
 312 1 189.116 2.836 0
 313 1 191.572 0 0
 314 1 190.344 0.709 0
 315 1 190.344 2.127 0
 316 1 191.572 2.836 0
 317 1 194.028 0 0
 318 1 192.8 0.709 0
 319 1 192.8 2.127 0
 320 1 194.028 2.836 0
 321 1 196.484 0 0
 322 1 195.256 0.709 0
 323 1 195.256 2.127 0
 324 1 196.484 2.836 0
 325 1 198.94 0 0
 326 1 197.712 0.709 0
 327 1 197.712 2.127 0
 328 1 198.94 2.836 0
 329 1 201.396 0 0
 330 1 200.168 0.709 0
 331 1 200.168 2.127 0
 332 1 201.396 2.836 0
 333 1 203.852 0 0
 334 1 202.624 0.709 0
 335 1 202.624 2.127 0
 336 1 203.852 2.836 0
 337 1 206.308 0 0
 338 1 205.08 0.709 0
 339 1 205.08 2.127 0
 340 1 206.308 2.836 0
 341 1 208.764 0 0
 342 1 207.536 0.709 0
 343 1 207.536 2.127 0
 344 1 208.764 2.836 0
 345 1 211.22 0 0
 346 1 209.992 0.709 0
 347 1 209.992 2.127 0
 348 1 211.22 2.836 0
 349 1 213.676 0 0
 350 1 212.448 0.709 0
 351 1 212.448 2.127 0
 352 1 213.676 2.836 0
 353 1 216.132 0 0
 354 1 214.904 0.709 0
 355 1 214.904 2.127 0
 356 1 216.132 2.836 0
 357 1 218.588 0 0
 358 1 217.36 0.709 0
 359 1 217.36 2.127 0
 360 1 218.588 2.836 0
 361 1 221.044 0 0
 362 1 219.816 0.709 0
 363 1 219.816 2.127 0
 364 1 221.044 2.836 0
 365 1 223.5 0 0
 366 1 222.272 0.709 0
 367 1 222.272 2.127 0
 368 1 223.5 2.836 0
 369 1 225.956 0 0
 370 1 224.728 0.709 0
 371 1 224.728 2.127 0
 372 1 225.956 2.836 0
 373 1 228.412 0 0
 374 1 227.184 0.709 0
 375 1 227.184 2.127 0
 376 1 228.412 2.836 0
 377 1 230.869 0 0
 378 1 229.64 0.709 0
 379 1 229.64 2.127 0
 380 1 230.869 2.836 0
 381 1 233.325 0 0
 382 1 232.097 0.709 0
 383 1 232.097 2.127 0
 384 1 233.325 2.836 0
 385 1 235.781 0 0
 386 1 234.553 0.709 0
 387 1 234.553 2.127 0
 388 1 235.781 2.836 0
 389 1 238.237 0 0
 390 1 237.009 0.709 0
 391 1 237.009 2.127 0
 392 1 238.237 2.836 0
 393 1 240.693 0 0
 394 1 239.465 0.709 0
 395 1 239.465 2.127 0
 396 1 240.693 2.836 0
 397 1 243.149 0 0
 398 1 241.921 0.709 0
 399 1 241.921 2.127 0
 400 1 243.149 2.836 0
 401 1 245.605 0 0
 402 1 244.377 0.709 0
 403 1 244.377 2.127 0
 404 1 245.605 2.836 0
 405 1 248.061 0 0
 406 1 246.833 0.709 0
 407 1 246.833 2.127 0
 408 1 248.061 2.836 0
 409 1 250.517 0 0
 410 1 249.289 0.709 0
 411 1 249.289 2.127 0
 412 1 250.517 2.836 0
 413 1 252.973 0 0
 414 1 251.745 0.709 0
 415 1 251.745 2.127 0
 416 1 252.973 2.836 0
 417 1 255.429 0 0
 418 1 254.201 0.709 0
 419 1 254.201 2.127 0
 420 1 255.429 2.836 0
 421 1 257.885 0 0
 422 1 256.657 0.709 0
 423 1 256.657 2.127 0
 424 1 257.885 2.836 0
 425 1 260.341 0 0
 426 1 259.113 0.709 0
 427 1 259.113 2.127 0
 428 1 260.341 2.836 0
 429 1 262.797 0 0
 430 1 261.569 0.709 0
 431 1 261.569 2.127 0
 432 1 262.797 2.836 0
 433 1 265.253 0 0
 434 1 264.025 0.709 0
 435 1 264.025 2.127 0
 436 1 265.253 2.836 0
 437 1 267.709 0 0
 438 1 266.481 0.709 0
 439 1 266.481 2.127 0
 440 1 267.709 2.836 0
 441 1 270.165 0 0
 442 1 268.937 0.709 0
 443 1 268.937 2.127 0
 444 1 270.165 2.836 0
 445 1 272.621 0 0
 446 1 271.393 0.709 0
 447 1 271.393 2.127 0
 448 1 272.621 2.836 0
 449 1 275.077 0 0
 450 1 273.849 0.709 0
 451 1 273.849 2.127 0
 452 1 275.077 2.836 0
 453 1 277.533 0 0
 454 1 276.305 0.709 0
 455 1 276.305 2.127 0
 456 1 277.533 2.836 0
 457 1 279.989 0 0
 458 1 278.761 0.709 0
 459 1 278.761 2.127 0
 460 1 279.989 2.836 0
 461 1 282.446 0 0
 462 1 281.217 0.709 0
 463 1 281.217 2.127 0
 464 1 282.446 2.836 0
 465 1 284.902 0 0
 466 1 283.674 0.709 0
 467 1 283.674 2.127 0
 468 1 284.902 2.836 0
 469 1 287.358 0 0
 470 1 286.13 0.709 0
 471 1 286.13 2.127 0
 472 1 287.358 2.836 0
 473 1 289.814 0 0
 474 1 288.586 0.709 0
 475 1 288.586 2.127 0
 476 1 289.814 2.836 0
 477 1 292.27 0 0
 478 1 291.042 0.709 0
 479 1 291.042 2.127 0
 480 1 292.27 2.836 0
 481 1 294.726 0 0
 482 1 293.498 0.709 0
 483 1 293.498 2.127 0
 484 1 294.726 2.836 0
 485 1 297.182 0 0
 486 1 295.954 0.709 0
 487 1 295.954 2.127 0
 488 1 297.182 2.836 0
 489 1 299.638 0 0
 490 1 298.41 0.709 0
 491 1 298.41 2.127 0
 492 1 299.638 2.836 0
 493 1 0 4.254 0
 494 1 -1.22802 4.963 0
 495 1 -1.22802 6.381 0
 496 1 0 7.09 0
 497 1 2.45605 4.254 0
 498 1 1.22802 4.963 0
 499 1 1.22802 6.381 0
 500 1 2.45605 7.09 0
 501 1 4.9121 4.254 0
 502 1 3.68407 4.963 0
 503 1 3.68407 6.381 0
 504 1 4.9121 7.09 0
 505 1 7.36814 4.254 0
 506 1 6.14012 4.963 0
 507 1 6.14012 6.381 0
 508 1 7.36814 7.09 0
 509 1 9.82419 4.254 0
 510 1 8.59617 4.963 0
 511 1 8.59617 6.381 0
 512 1 9.82419 7.09 0
 513 1 12.2802 4.254 0
 514 1 11.0522 4.963 0
 515 1 11.0522 6.381 0
 516 1 12.2802 7.09 0
 517 1 14.7363 4.254 0
 518 1 13.5083 4.963 0
 519 1 13.5083 6.381 0
 520 1 14.7363 7.09 0
 521 1 17.1923 4.254 0
 522 1 15.9643 4.963 0
 523 1 15.9643 6.381 0
 524 1 17.1923 7.09 0
 525 1 19.6484 4.254 0
 526 1 18.4204 4.963 0
 527 1 18.4204 6.381 0
 528 1 19.6484 7.09 0
 529 1 22.1044 4.254 0
 530 1 20.8764 4.963 0
 531 1 20.8764 6.381 0
 532 1 22.1044 7.09 0
 533 1 24.5605 4.254 0
 534 1 23.3325 4.963 0
 535 1 23.3325 6.381 0
 536 1 24.5605 7.09 0
 537 1 27.0165 4.254 0
 538 1 25.7885 4.963 0
 539 1 25.7885 6.381 0
 540 1 27.0165 7.09 0
 541 1 29.4726 4.254 0
 542 1 28.2446 4.963 0
 543 1 28.2446 6.381 0
 544 1 29.4726 7.09 0
 545 1 31.9286 4.254 0
 546 1 30.7006 4.963 0
 547 1 30.7006 6.381 0
 548 1 31.9286 7.09 0
 549 1 34.3847 4.254 0
 550 1 33.1566 4.963 0
 551 1 33.1566 6.381 0
 552 1 34.3847 7.09 0
 553 1 36.8407 4.254 0
 554 1 35.6127 4.963 0
 555 1 35.6127 6.381 0
 556 1 36.8407 7.09 0
 557 1 39.2968 4.254 0
 558 1 38.0687 4.963 0
 559 1 38.0687 6.381 0
 560 1 39.2968 7.09 0
 561 1 41.7528 4.254 0
 562 1 40.5248 4.963 0
 563 1 40.5248 6.381 0
 564 1 41.7528 7.09 0
 565 1 44.2089 4.254 0
 566 1 42.9808 4.963 0
 567 1 42.9808 6.381 0
 568 1 44.2089 7.09 0
 569 1 46.6649 4.254 0
 570 1 45.4369 4.963 0
 571 1 45.4369 6.381 0
 572 1 46.6649 7.09 0
 573 1 49.121 4.254 0
 574 1 47.8929 4.963 0
 575 1 47.8929 6.381 0
 576 1 49.121 7.09 0
 577 1 51.577 4.254 0
 578 1 50.349 4.963 0
 579 1 50.349 6.381 0
 580 1 51.577 7.09 0
 581 1 54.0331 4.254 0
 582 1 52.805 4.963 0
 583 1 52.805 6.381 0
 584 1 54.0331 7.09 0
 585 1 56.4891 4.254 0
 586 1 55.2611 4.963 0
 587 1 55.2611 6.381 0
 588 1 56.4891 7.09 0
 589 1 58.9452 4.254 0
 590 1 57.7171 4.963 0
 591 1 57.7171 6.381 0
 592 1 58.9452 7.09 0
 593 1 61.4012 4.254 0
 594 1 60.1732 4.963 0
 595 1 60.1732 6.381 0
 596 1 61.4012 7.09 0
 597 1 63.8573 4.254 0
 598 1 62.6292 4.963 0
 599 1 62.6292 6.381 0
 600 1 63.8573 7.09 0
 601 1 66.3133 4.254 0
 602 1 65.0853 4.963 0
 603 1 65.0853 6.381 0
 604 1 66.3133 7.09 0
 605 1 68.7693 4.254 0
 606 1 67.5413 4.963 0
 607 1 67.5413 6.381 0
 608 1 68.7693 7.09 0
 609 1 71.2254 4.254 0
 610 1 69.9974 4.963 0
 611 1 69.9974 6.381 0
 612 1 71.2254 7.09 0
 613 1 73.6814 4.254 0
 614 1 72.4534 4.963 0
 615 1 72.4534 6.381 0
 616 1 73.6814 7.09 0
 617 1 76.1375 4.254 0
 618 1 74.9095 4.963 0
 619 1 74.9095 6.381 0
 620 1 76.1375 7.09 0
 621 1 78.5935 4.254 0
 622 1 77.3655 4.963 0
 623 1 77.3655 6.381 0
 624 1 78.5935 7.09 0
 625 1 81.0496 4.254 0
 626 1 79.8216 4.963 0
 627 1 79.8216 6.381 0
 628 1 81.0496 7.09 0
 629 1 83.5056 4.254 0
 630 1 82.2776 4.963 0
 631 1 82.2776 6.381 0
 632 1 83.5056 7.09 0
 633 1 85.9617 4.254 0
 634 1 84.7337 4.963 0
 635 1 84.7337 6.381 0
 636 1 85.9617 7.09 0
 637 1 88.4177 4.254 0
 638 1 87.1897 4.963 0
 639 1 87.1897 6.381 0
 640 1 88.4177 7.09 0
 641 1 90.8738 4.254 0
 642 1 89.6458 4.963 0
 643 1 89.6458 6.381 0
 644 1 90.8738 7.09 0
 645 1 93.3298 4.254 0
 646 1 92.1018 4.963 0
 647 1 92.1018 6.381 0
 648 1 93.3298 7.09 0
 649 1 95.7859 4.254 0
 650 1 94.5578 4.963 0
 651 1 94.5578 6.381 0
 652 1 95.7859 7.09 0
 653 1 98.2419 4.254 0
 654 1 97.0139 4.963 0
 655 1 97.0139 6.381 0
 656 1 98.2419 7.09 0
 657 1 100.698 4.254 0
 658 1 99.4699 4.963 0
 659 1 99.4699 6.381 0
 660 1 100.698 7.09 0
 661 1 103.154 4.254 0
 662 1 101.926 4.963 0
 663 1 101.926 6.381 0
 664 1 103.154 7.09 0
 665 1 105.61 4.254 0
 666 1 104.382 4.963 0
 667 1 104.382 6.381 0
 668 1 105.61 7.09 0
 669 1 108.066 4.254 0
 670 1 106.838 4.963 0
 671 1 106.838 6.381 0
 672 1 108.066 7.09 0
 673 1 110.522 4.254 0
 674 1 109.294 4.963 0
 675 1 109.294 6.381 0
 676 1 110.522 7.09 0
 677 1 112.978 4.254 0
 678 1 111.75 4.963 0
 679 1 111.75 6.381 0
 680 1 112.978 7.09 0
 681 1 115.434 4.254 0
 682 1 114.206 4.963 0
 683 1 114.206 6.381 0
 684 1 115.434 7.09 0
 685 1 117.89 4.254 0
 686 1 116.662 4.963 0
 687 1 116.662 6.381 0
 688 1 117.89 7.09 0
 689 1 120.346 4.254 0
 690 1 119.118 4.963 0
 691 1 119.118 6.381 0
 692 1 120.346 7.09 0
 693 1 122.802 4.254 0
 694 1 121.574 4.963 0
 695 1 121.574 6.381 0
 696 1 122.802 7.09 0
 697 1 125.258 4.254 0
 698 1 124.03 4.963 0
 699 1 124.03 6.381 0
 700 1 125.258 7.09 0
 701 1 127.715 4.254 0
 702 1 126.486 4.963 0
 703 1 126.486 6.381 0
 704 1 127.715 7.09 0
 705 1 130.171 4.254 0
 706 1 128.943 4.963 0
 707 1 128.943 6.381 0
 708 1 130.171 7.09 0
 709 1 132.627 4.254 0
 710 1 131.399 4.963 0
 711 1 131.399 6.381 0
 712 1 132.627 7.09 0
 713 1 135.083 4.254 0
 714 1 133.855 4.963 0
 715 1 133.855 6.381 0
 716 1 135.083 7.09 0
 717 1 137.539 4.254 0
 718 1 136.311 4.963 0
 719 1 136.311 6.381 0
 720 1 137.539 7.09 0
 721 1 139.995 4.254 0
 722 1 138.767 4.963 0
 723 1 138.767 6.381 0
 724 1 139.995 7.09 0
 725 1 142.451 4.254 0
 726 1 141.223 4.963 0
 727 1 141.223 6.381 0
 728 1 142.451 7.09 0
 729 1 144.907 4.254 0
 730 1 143.679 4.963 0
 731 1 143.679 6.381 0
 732 1 144.907 7.09 0
 733 1 147.363 4.254 0
 734 1 146.135 4.963 0
 735 1 146.135 6.381 0
 736 1 147.363 7.09 0
 737 1 149.819 4.254 0
 738 1 148.591 4.963 0
 739 1 148.591 6.381 0
 740 1 149.819 7.09 0
 741 1 152.275 4.254 0
 742 1 151.047 4.963 0
 743 1 151.047 6.381 0
 744 1 152.275 7.09 0
 745 1 154.731 4.254 0
 746 1 153.503 4.963 0
 747 1 153.503 6.381 0
 748 1 154.731 7.09 0
 749 1 157.187 4.254 0
 750 1 155.959 4.963 0
 751 1 155.959 6.381 0
 752 1 157.187 7.09 0
 753 1 159.643 4.254 0
 754 1 158.415 4.963 0
 755 1 158.415 6.381 0
 756 1 159.643 7.09 0
 757 1 162.099 4.254 0
 758 1 160.871 4.963 0
 759 1 160.871 6.381 0
 760 1 162.099 7.09 0
 761 1 164.555 4.254 0
 762 1 163.327 4.963 0
 763 1 163.327 6.381 0
 764 1 164.555 7.09 0
 765 1 167.011 4.254 0
 766 1 165.783 4.963 0
 767 1 165.783 6.381 0
 768 1 167.011 7.09 0
 769 1 169.467 4.254 0
 770 1 168.239 4.963 0
 771 1 168.239 6.381 0
 772 1 169.467 7.09 0
 773 1 171.923 4.254 0
 774 1 170.695 4.963 0
 775 1 170.695 6.381 0
 776 1 171.923 7.09 0
 777 1 174.379 4.254 0
 778 1 173.151 4.963 0
 779 1 173.151 6.381 0
 780 1 174.379 7.09 0
 781 1 176.835 4.254 0
 782 1 175.607 4.963 0
 783 1 175.607 6.381 0
 784 1 176.835 7.09 0
 785 1 179.292 4.254 0
 786 1 178.063 4.963 0
 787 1 178.063 6.381 0
 788 1 179.292 7.09 0
 789 1 181.748 4.254 0
 790 1 180.52 4.963 0
 791 1 180.52 6.381 0
 792 1 181.748 7.09 0
 793 1 184.204 4.254 0
 794 1 182.976 4.963 0
 795 1 182.976 6.381 0
 796 1 184.204 7.09 0
 797 1 186.66 4.254 0
 798 1 185.432 4.963 0
 799 1 185.432 6.381 0
 800 1 186.66 7.09 0
 801 1 189.116 4.254 0
 802 1 187.888 4.963 0
 803 1 187.888 6.381 0
 804 1 189.116 7.09 0
 805 1 191.572 4.254 0
 806 1 190.344 4.963 0
 807 1 190.344 6.381 0
 808 1 191.572 7.09 0
 809 1 194.028 4.254 0
 810 1 192.8 4.963 0
 811 1 192.8 6.381 0
 812 1 194.028 7.09 0
 813 1 196.484 4.254 0
 814 1 195.256 4.963 0
 815 1 195.256 6.381 0
 816 1 196.484 7.09 0
 817 1 198.94 4.254 0
 818 1 197.712 4.963 0
 819 1 197.712 6.381 0
 820 1 198.94 7.09 0
 821 1 201.396 4.254 0
 822 1 200.168 4.963 0
 823 1 200.168 6.381 0
 824 1 201.396 7.09 0
 825 1 203.852 4.254 0
 826 1 202.624 4.963 0
 827 1 202.624 6.381 0
 828 1 203.852 7.09 0
 829 1 206.308 4.254 0
 830 1 205.08 4.963 0
 831 1 205.08 6.381 0
 832 1 206.308 7.09 0
 833 1 208.764 4.254 0
 834 1 207.536 4.963 0
 835 1 207.536 6.381 0
 836 1 208.764 7.09 0
 837 1 211.22 4.254 0
 838 1 209.992 4.963 0
 839 1 209.992 6.381 0
 840 1 211.22 7.09 0
 841 1 213.676 4.254 0
 842 1 212.448 4.963 0
 843 1 212.448 6.381 0
 844 1 213.676 7.09 0
 845 1 216.132 4.254 0
 846 1 214.904 4.963 0
 847 1 214.904 6.381 0
 848 1 216.132 7.09 0
 849 1 218.588 4.254 0
 850 1 217.36 4.963 0
 851 1 217.36 6.381 0
 852 1 218.588 7.09 0
 853 1 221.044 4.254 0
 854 1 219.816 4.963 0
 855 1 219.816 6.381 0
 856 1 221.044 7.09 0
 857 1 223.5 4.254 0
 858 1 222.272 4.963 0
 859 1 222.272 6.381 0
 860 1 223.5 7.09 0
 861 1 225.956 4.254 0
 862 1 224.728 4.963 0
 863 1 224.728 6.381 0
 864 1 225.956 7.09 0
 865 1 228.412 4.254 0
 866 1 227.184 4.963 0
 867 1 227.184 6.381 0
 868 1 228.412 7.09 0
 869 1 230.869 4.254 0
 870 1 229.64 4.963 0
 871 1 229.64 6.381 0
 872 1 230.869 7.09 0
 873 1 233.325 4.254 0
 874 1 232.097 4.963 0
 875 1 232.097 6.381 0
 876 1 233.325 7.09 0
 877 1 235.781 4.254 0
 878 1 234.553 4.963 0
 879 1 234.553 6.381 0
 880 1 235.781 7.09 0
 881 1 238.237 4.254 0
 882 1 237.009 4.963 0
 883 1 237.009 6.381 0
 884 1 238.237 7.09 0
 885 1 240.693 4.254 0
 886 1 239.465 4.963 0
 887 1 239.465 6.381 0
 888 1 240.693 7.09 0
 889 1 243.149 4.254 0
 890 1 241.921 4.963 0
 891 1 241.921 6.381 0
 892 1 243.149 7.09 0
 893 1 245.605 4.254 0
 894 1 244.377 4.963 0
 895 1 244.377 6.381 0
 896 1 245.605 7.09 0
 897 1 248.061 4.254 0
 898 1 246.833 4.963 0
 899 1 246.833 6.381 0
 900 1 248.061 7.09 0
 901 1 250.517 4.254 0
 902 1 249.289 4.963 0
 903 1 249.289 6.381 0
 904 1 250.517 7.09 0
 905 1 252.973 4.254 0
 906 1 251.745 4.963 0
 907 1 251.745 6.381 0
 908 1 252.973 7.09 0
 909 1 255.429 4.254 0
 910 1 254.201 4.963 0
 911 1 254.201 6.381 0
 912 1 255.429 7.09 0
 913 1 257.885 4.254 0
 914 1 256.657 4.963 0
 915 1 256.657 6.381 0
 916 1 257.885 7.09 0
 917 1 260.341 4.254 0
 918 1 259.113 4.963 0
 919 1 259.113 6.381 0
 920 1 260.341 7.09 0
 921 1 262.797 4.254 0
 922 1 261.569 4.963 0
 923 1 261.569 6.381 0
 924 1 262.797 7.09 0
 925 1 265.253 4.254 0
 926 1 264.025 4.963 0
 927 1 264.025 6.381 0
 928 1 265.253 7.09 0
 929 1 267.709 4.254 0
 930 1 266.481 4.963 0
 931 1 266.481 6.381 0
 932 1 267.709 7.09 0
 933 1 270.165 4.254 0
 934 1 268.937 4.963 0
 935 1 268.937 6.381 0
 936 1 270.165 7.09 0
 937 1 272.621 4.254 0
 938 1 271.393 4.963 0
 939 1 271.393 6.381 0
 940 1 272.621 7.09 0
 941 1 275.077 4.254 0
 942 1 273.849 4.963 0
 943 1 273.849 6.381 0
 944 1 275.077 7.09 0
 945 1 277.533 4.254 0
 946 1 276.305 4.963 0
 947 1 276.305 6.381 0
 948 1 277.533 7.09 0
 949 1 279.989 4.254 0
 950 1 278.761 4.963 0
 951 1 278.761 6.381 0
 952 1 279.989 7.09 0
 953 1 282.446 4.254 0
 954 1 281.217 4.963 0
 955 1 281.217 6.381 0
 956 1 282.446 7.09 0
 957 1 284.902 4.254 0
 958 1 283.674 4.963 0
 959 1 283.674 6.381 0
 960 1 284.902 7.09 0
 961 1 287.358 4.254 0
 962 1 286.13 4.963 0
 963 1 286.13 6.381 0
 964 1 287.358 7.09 0
 965 1 289.814 4.254 0
 966 1 288.586 4.963 0
 967 1 288.586 6.381 0
 968 1 289.814 7.09 0
 969 1 292.27 4.254 0
 970 1 291.042 4.963 0
 971 1 291.042 6.381 0
 972 1 292.27 7.09 0
 973 1 294.726 4.254 0
 974 1 293.498 4.963 0
 975 1 293.498 6.381 0
 976 1 294.726 7.09 0
 977 1 297.182 4.254 0
 978 1 295.954 4.963 0
 979 1 295.954 6.381 0
 980 1 297.182 7.09 0
 981 1 299.638 4.254 0
 982 1 298.41 4.963 0
 983 1 298.41 6.381 0
 984 1 299.638 7.09 0
 985 1 0 8.508 0
 986 1 -1.22802 9.217 0
 987 1 -1.22802 10.635 0
 988 1 0 11.344 0
 989 1 2.45605 8.508 0
 990 1 1.22802 9.217 0
 991 1 1.22802 10.635 0
 992 1 2.45605 11.344 0
 993 1 4.9121 8.508 0
 994 1 3.68407 9.217 0
 995 1 3.68407 10.635 0
 996 1 4.9121 11.344 0
 997 1 7.36814 8.508 0
 998 1 6.14012 9.217 0
 999 1 6.14012 10.635 0
 1000 1 7.36814 11.344 0
 1001 1 9.82419 8.508 0
 1002 1 8.59617 9.217 0
 1003 1 8.59617 10.635 0
 1004 1 9.82419 11.344 0
 1005 1 12.2802 8.508 0
 1006 1 11.0522 9.217 0
 1007 1 11.0522 10.635 0
 1008 1 12.2802 11.344 0
 1009 1 14.7363 8.508 0
 1010 1 13.5083 9.217 0
 1011 1 13.5083 10.635 0
 1012 1 14.7363 11.344 0
 1013 1 17.1923 8.508 0
 1014 1 15.9643 9.217 0
 1015 1 15.9643 10.635 0
 1016 1 17.1923 11.344 0
 1017 1 19.6484 8.508 0
 1018 1 18.4204 9.217 0
 1019 1 18.4204 10.635 0
 1020 1 19.6484 11.344 0
 1021 1 22.1044 8.508 0
 1022 1 20.8764 9.217 0
 1023 1 20.8764 10.635 0
 1024 1 22.1044 11.344 0
 1025 1 24.5605 8.508 0
 1026 1 23.3325 9.217 0
 1027 1 23.3325 10.635 0
 1028 1 24.5605 11.344 0
 1029 1 27.0165 8.508 0
 1030 1 25.7885 9.217 0
 1031 1 25.7885 10.635 0
 1032 1 27.0165 11.344 0
 1033 1 29.4726 8.508 0
 1034 1 28.2446 9.217 0
 1035 1 28.2446 10.635 0
 1036 1 29.4726 11.344 0
 1037 1 31.9286 8.508 0
 1038 1 30.7006 9.217 0
 1039 1 30.7006 10.635 0
 1040 1 31.9286 11.344 0
 1041 1 34.3847 8.508 0
 1042 1 33.1566 9.217 0
 1043 1 33.1566 10.635 0
 1044 1 34.3847 11.344 0
 1045 1 36.8407 8.508 0
 1046 1 35.6127 9.217 0
 1047 1 35.6127 10.635 0
 1048 1 36.8407 11.344 0
 1049 1 39.2968 8.508 0
 1050 1 38.0687 9.217 0
 1051 1 38.0687 10.635 0
 1052 1 39.2968 11.344 0
 1053 1 41.7528 8.508 0
 1054 1 40.5248 9.217 0
 1055 1 40.5248 10.635 0
 1056 1 41.7528 11.344 0
 1057 1 44.2089 8.508 0
 1058 1 42.9808 9.217 0
 1059 1 42.9808 10.635 0
 1060 1 44.2089 11.344 0
 1061 1 46.6649 8.508 0
 1062 1 45.4369 9.217 0
 1063 1 45.4369 10.635 0
 1064 1 46.6649 11.344 0
 1065 1 49.121 8.508 0
 1066 1 47.8929 9.217 0
 1067 1 47.8929 10.635 0
 1068 1 49.121 11.344 0
 1069 1 51.577 8.508 0
 1070 1 50.349 9.217 0
 1071 1 50.349 10.635 0
 1072 1 51.577 11.344 0
 1073 1 54.0331 8.508 0
 1074 1 52.805 9.217 0
 1075 1 52.805 10.635 0
 1076 1 54.0331 11.344 0
 1077 1 56.4891 8.508 0
 1078 1 55.2611 9.217 0
 1079 1 55.2611 10.635 0
 1080 1 56.4891 11.344 0
 1081 1 58.9452 8.508 0
 1082 1 57.7171 9.217 0
 1083 1 57.7171 10.635 0
 1084 1 58.9452 11.344 0
 1085 1 61.4012 8.508 0
 1086 1 60.1732 9.217 0
 1087 1 60.1732 10.635 0
 1088 1 61.4012 11.344 0
 1089 1 63.8573 8.508 0
 1090 1 62.6292 9.217 0
 1091 1 62.6292 10.635 0
 1092 1 63.8573 11.344 0
 1093 1 66.3133 8.508 0
 1094 1 65.0853 9.217 0
 1095 1 65.0853 10.635 0
 1096 1 66.3133 11.344 0
 1097 1 68.7693 8.508 0
 1098 1 67.5413 9.217 0
 1099 1 67.5413 10.635 0
 1100 1 68.7693 11.344 0
 1101 1 71.2254 8.508 0
 1102 1 69.9974 9.217 0
 1103 1 69.9974 10.635 0
 1104 1 71.2254 11.344 0
 1105 1 73.6814 8.508 0
 1106 1 72.4534 9.217 0
 1107 1 72.4534 10.635 0
 1108 1 73.6814 11.344 0
 1109 1 76.1375 8.508 0
 1110 1 74.9095 9.217 0
 1111 1 74.9095 10.635 0
 1112 1 76.1375 11.344 0
 1113 1 78.5935 8.508 0
 1114 1 77.3655 9.217 0
 1115 1 77.3655 10.635 0
 1116 1 78.5935 11.344 0
 1117 1 81.0496 8.508 0
 1118 1 79.8216 9.217 0
 1119 1 79.8216 10.635 0
 1120 1 81.0496 11.344 0
 1121 1 83.5056 8.508 0
 1122 1 82.2776 9.217 0
 1123 1 82.2776 10.635 0
 1124 1 83.5056 11.344 0
 1125 1 85.9617 8.508 0
 1126 1 84.7337 9.217 0
 1127 1 84.7337 10.635 0
 1128 1 85.9617 11.344 0
 1129 1 88.4177 8.508 0
 1130 1 87.1897 9.217 0
 1131 1 87.1897 10.635 0
 1132 1 88.4177 11.344 0
 1133 1 90.8738 8.508 0
 1134 1 89.6458 9.217 0
 1135 1 89.6458 10.635 0
 1136 1 90.8738 11.344 0
 1137 1 93.3298 8.508 0
 1138 1 92.1018 9.217 0
 1139 1 92.1018 10.635 0
 1140 1 93.3298 11.344 0
 1141 1 95.7859 8.508 0
 1142 1 94.5578 9.217 0
 1143 1 94.5578 10.635 0
 1144 1 95.7859 11.344 0
 1145 1 98.2419 8.508 0
 1146 1 97.0139 9.217 0
 1147 1 97.0139 10.635 0
 1148 1 98.2419 11.344 0
 1149 1 100.698 8.508 0
 1150 1 99.4699 9.217 0
 1151 1 99.4699 10.635 0
 1152 1 100.698 11.344 0
 1153 1 103.154 8.508 0
 1154 1 101.926 9.217 0
 1155 1 101.926 10.635 0
 1156 1 103.154 11.344 0
 1157 1 105.61 8.508 0
 1158 1 104.382 9.217 0
 1159 1 104.382 10.635 0
 1160 1 105.61 11.344 0
 1161 1 108.066 8.508 0
 1162 1 106.838 9.217 0
 1163 1 106.838 10.635 0
 1164 1 108.066 11.344 0
 1165 1 110.522 8.508 0
 1166 1 109.294 9.217 0
 1167 1 109.294 10.635 0
 1168 1 110.522 11.344 0
 1169 1 112.978 8.508 0
 1170 1 111.75 9.217 0
 1171 1 111.75 10.635 0
 1172 1 112.978 11.344 0
 1173 1 115.434 8.508 0
 1174 1 114.206 9.217 0
 1175 1 114.206 10.635 0
 1176 1 115.434 11.344 0
 1177 1 117.89 8.508 0
 1178 1 116.662 9.217 0
 1179 1 116.662 10.635 0
 1180 1 117.89 11.344 0
 1181 1 120.346 8.508 0
 1182 1 119.118 9.217 0
 1183 1 119.118 10.635 0
 1184 1 120.346 11.344 0
 1185 1 122.802 8.508 0
 1186 1 121.574 9.217 0
 1187 1 121.574 10.635 0
 1188 1 122.802 11.344 0
 1189 1 125.258 8.508 0
 1190 1 124.03 9.217 0
 1191 1 124.03 10.635 0
 1192 1 125.258 11.344 0
 1193 1 127.715 8.508 0
 1194 1 126.486 9.217 0
 1195 1 126.486 10.635 0
 1196 1 127.715 11.344 0
 1197 1 130.171 8.508 0
 1198 1 128.943 9.217 0
 1199 1 128.943 10.635 0
 1200 1 130.171 11.344 0
 1201 1 132.627 8.508 0
 1202 1 131.399 9.217 0
 1203 1 131.399 10.635 0
 1204 1 132.627 11.344 0
 1205 1 135.083 8.508 0
 1206 1 133.855 9.217 0
 1207 1 133.855 10.635 0
 1208 1 135.083 11.344 0
 1209 1 137.539 8.508 0
 1210 1 136.311 9.217 0
 1211 1 136.311 10.635 0
 1212 1 137.539 11.344 0
 1213 1 139.995 8.508 0
 1214 1 138.767 9.217 0
 1215 1 138.767 10.635 0
 1216 1 139.995 11.344 0
 1217 1 142.451 8.508 0
 1218 1 141.223 9.217 0
 1219 1 141.223 10.635 0
 1220 1 142.451 11.344 0
 1221 1 144.907 8.508 0
 1222 1 143.679 9.217 0
 1223 1 143.679 10.635 0
 1224 1 144.907 11.344 0
 1225 1 147.363 8.508 0
 1226 1 146.135 9.217 0
 1227 1 146.135 10.635 0
 1228 1 147.363 11.344 0
 1229 1 149.819 8.508 0
 1230 1 148.591 9.217 0
 1231 1 148.591 10.635 0
 1232 1 149.819 11.344 0
 1233 1 152.275 8.508 0
 1234 1 151.047 9.217 0
 1235 1 151.047 10.635 0
 1236 1 152.275 11.344 0
 1237 1 154.731 8.508 0
 1238 1 153.503 9.217 0
 1239 1 153.503 10.635 0
 1240 1 154.731 11.344 0
 1241 1 157.187 8.508 0
 1242 1 155.959 9.217 0
 1243 1 155.959 10.635 0
 1244 1 157.187 11.344 0
 1245 1 159.643 8.508 0
 1246 1 158.415 9.217 0
 1247 1 158.415 10.635 0
 1248 1 159.643 11.344 0
 1249 1 162.099 8.508 0
 1250 1 160.871 9.217 0
 1251 1 160.871 10.635 0
 1252 1 162.099 11.344 0
 1253 1 164.555 8.508 0
 1254 1 163.327 9.217 0
 1255 1 163.327 10.635 0
 1256 1 164.555 11.344 0
 1257 1 167.011 8.508 0
 1258 1 165.783 9.217 0
 1259 1 165.783 10.635 0
 1260 1 167.011 11.344 0
 1261 1 169.467 8.508 0
 1262 1 168.239 9.217 0
 1263 1 168.239 10.635 0
 1264 1 169.467 11.344 0
 1265 1 171.923 8.508 0
 1266 1 170.695 9.217 0
 1267 1 170.695 10.635 0
 1268 1 171.923 11.344 0
 1269 1 174.379 8.508 0
 1270 1 173.151 9.217 0
 1271 1 173.151 10.635 0
 1272 1 174.379 11.344 0
 1273 1 176.835 8.508 0
 1274 1 175.607 9.217 0
 1275 1 175.607 10.635 0
 1276 1 176.835 11.344 0
 1277 1 179.292 8.508 0
 1278 1 178.063 9.217 0
 1279 1 178.063 10.635 0
 1280 1 179.292 11.344 0
 1281 1 181.748 8.508 0
 1282 1 180.52 9.217 0
 1283 1 180.52 10.635 0
 1284 1 181.748 11.344 0
 1285 1 184.204 8.508 0
 1286 1 182.976 9.217 0
 1287 1 182.976 10.635 0
 1288 1 184.204 11.344 0
 1289 1 186.66 8.508 0
 1290 1 185.432 9.217 0
 1291 1 185.432 10.635 0
 1292 1 186.66 11.344 0
 1293 1 189.116 8.508 0
 1294 1 187.888 9.217 0
 1295 1 187.888 10.635 0
 1296 1 189.116 11.344 0
 1297 1 191.572 8.508 0
 1298 1 190.344 9.217 0
 1299 1 190.344 10.635 0
 1300 1 191.572 11.344 0
 1301 1 194.028 8.508 0
 1302 1 192.8 9.217 0
 1303 1 192.8 10.635 0
 1304 1 194.028 11.344 0
 1305 1 196.484 8.508 0
 1306 1 195.256 9.217 0
 1307 1 195.256 10.635 0
 1308 1 196.484 11.344 0
 1309 1 198.94 8.508 0
 1310 1 197.712 9.217 0
 1311 1 197.712 10.635 0
 1312 1 198.94 11.344 0
 1313 1 201.396 8.508 0
 1314 1 200.168 9.217 0
 1315 1 200.168 10.635 0