ITEM: TIMESTEP
0
ITEM: NUMBER OF ATOMS
10
ITEM: BOX BOUNDS pp pp pp
-15 15
-15 15
-15 15
ITEM: ATOMS id type xs ys zs ix iy iz
1 1 0.5 0.5 0.333333 0 0 0
2 2 0.5 0.5 0.366667 0 0 0
3 2 0.5 0.5 0.4 0 0 0
4 2 0.5 0.5 0.433333 0 0 0
5 2 0.5 0.5 0.466667 0 0 0
6 2 0.5 0.5 0.5 0 0 0
7 2 0.5 0.5 0.533333 0 0 0
8 2 0.5 0.5 0.566667 0 0 0
9 2 0.5 0.5 0.6 0 0 0
10 3 0.5 0.5 0.633333 0 0 0
ITEM: TIMESTEP
1
ITEM: NUMBER OF ATOMS
10
ITEM: BOX BOUNDS pp pp pp
-15 15
-15 15
-15 15
ITEM: ATOMS id type xs ys zs ix iy iz
1 1 0.5 0.5 0.333333 0 0 0
2 2 0.50001 0.499856 0.366461 0 0 0
3 2 0.500126 0.500002 0.400266 0 0 0
4 2 0.499837 0.500166 0.433187 0 0 0
5 2 0.50023 0.500019 0.466673 0 0 0
6 2 0.50015 0.499714 0.499892 0 0 0
7 2 0.499843 0.500214 0.53335 0 0 0
8 2 0.499848 0.499845 0.566594 0 0 0
9 2 0.49996 0.50013 0.600197 0 0 0
10 3 0.5 0.5 0.633325 0 0 0
ITEM: TIMESTEP
2
ITEM: NUMBER OF ATOMS
10
ITEM: BOX BOUNDS pp pp pp
-15 15
-15 15
-15 15
ITEM: ATOMS id type xs ys zs ix iy iz
1 1 0.5 0.5 0.333333 0 0 0
2 2 0.500025 0.499699 0.36625 0 0 0
3 2 0.500245 0.499982 0.400531 0 0 0
4 2 0.499646 0.50032 0.433031 0 0 0
5 2 0.500484 0.500053 0.466696 0 0 0
6 2 0.500277 0.499439 0.499785 0 0 0
7 2 0.499668 0.500421 0.533372 0 0 0
8 2 0.499685 0.499691 0.56653 0 0 0
9 2 0.499901 0.50026 0.600371 0 0 0
10 3 0.5 0.5 0.633303 0 0 0
ITEM: TIMESTEP
3
ITEM: NUMBER OF ATOMS
10
ITEM: BOX BOUNDS pp pp pp
-15 15
-15 15
-15 15
ITEM: ATOMS id type xs ys zs ix iy iz
1 1 0.5 0.5 0.333333 0 0 0
2 2 0.500028 0.499543 0.366048 0 0 0
3 2 0.500344 0.499988 0.400765 0 0 0
4 2 0.499461 0.500488 0.432897 0 0 0
5 2 0.50076 0.500108 0.466694 0 0 0
6 2 0.5004 0.49919 0.4997 0 0 0
7 2 0.499503 0.500604 0.533404 0 0 0
8 2 0.499514 0.499533 0.566491 0 0 0
9 2 0.499826 0.500402 0.600538 0 0 0
10 3 0.5 0.5 0.633271 0 0 0
ITEM: TIMESTEP
4
ITEM: NUMBER OF ATOMS
10
ITEM: BOX BOUNDS pp pp pp
-15 15
-15 15
-15 15
ITEM: ATOMS id type xs ys zs ix iy iz
1 1 0.5 0.5 0.333333 0 0 0
2 2 0.500021 0.499366 0.365858 0 0 0
3 2 0.500444 0.499986 0.400978 0 0 0
4 2 0.4993 0.500669 0.432816 0 0 0
5 2 0.501007 0.500189 0.466707 0 0 0
6 2 0.500499 0.498952 0.499633 0 0 0
7 2 0.49935 0.500794 0.53344 0 0 0
8 2 0.499356 0.499381 0.566487 0 0 0
9 2 0.499746 0.500548 0.600703 0 0 0
10 3 0.5 0.500001 0.633232 0 0 0
ITEM: TIMESTEP
5
ITEM: NUMBER OF ATOMS
10
ITEM: BOX BOUNDS pp pp pp
-15 15
-15 15
-15 15
ITEM: ATOMS id type xs ys zs ix iy iz
1 1 0.5 0.5 0.333333 0 0 0
2 2 0.500006 0.499168 0.365677 0 0 0
3 2 0.500527 0.499972 0.401138 0 0 0
4 2 0.499154 0.500877 0.432772 0 0 0
5 2 0.501226 0.500291 0.466718 0 0 0
6 2 0.500578 0.498691 0.499555 0 0 0
7 2 0.499184 0.500956 0.533448 0 0 0
8 2 0.499191 0.49921 0.566477 0 0 0
9 2 0.499674 0.500696 0.600869 0 0 0
10 3 0.499999 0.500001 0.633191 0 0 0
ITEM: TIMESTEP
6
ITEM: NUMBER OF ATOMS
10
ITEM: BOX BOUNDS pp pp pp
-15 15
-15 15
-15 15
ITEM: ATOMS id type xs ys zs ix iy iz
1 1 0.5 0.5 0.333333 0 0 0
2 2 0.499976 0.498956 0.365525 0 0 0
3 2 0.500622 0.499957 0.401233 0 0 0
4 2 0.499032 0.50108 0.432801 0 0 0
5 2 0.501455 0.500377 0.466718 0 0 0
6 2 0.500684 0.498439 0.499489 0 0 0
7 2 0.499015 0.501103 0.533443 0 0 0
8 2 0.499035 0.499067 0.566497 0 0 0
9 2 0.499618 0.50087 0.601018 0 0 0
10 3 0.499999 0.500002 0.63315 0 0 0
ITEM: TIMESTEP
7
ITEM: NUMBER OF ATOMS
10
ITEM: BOX BOUNDS pp pp pp
-15 15
-15 15
-15 15
ITEM: ATOMS id type xs ys zs ix iy iz
1 1 0.5 0.5 0.333333 0 0 0
2 2 0.499961 0.498745 0.365447 0 0 0
3 2 0.500693 0.499949 0.401289 0 0 0
4 2 0.498903 0.501309 0.432857 0 0 0
5 2 0.501665 0.500437 0.466695 0 0 0
6 2 0.500802 0.498202 0.499451 0 0 0
7 2 0.498848 0.501234 0.533435 0 0 0
8 2 0.498854 0.498933 0.566548 0 0 0
9 2 0.499542 0.501039 0.601136 0 0 0
10 3 0.499999 0.500003 0.633115 0 0 0
ITEM: TIMESTEP
8
ITEM: NUMBER OF ATOMS
10
ITEM: BOX BOUNDS pp pp pp
-15 15
-15 15
-15 15
ITEM: ATOMS id type xs ys zs ix iy iz
1 1 0.5 0.5 0.333333 0 0 0
2 2 0.499976 0.498518 0.365407 0 0 0
3 2 0.500776 0.499921 0.401292 0 0 0
4 2 0.498779 0.501555 0.432948 0 0 0
5 2 0.501897 0.500518 0.466671 0 0 0
6 2 0.500892 0.497947 0.499455 0 0 0
7 2 0.498707 0.501372 0.533441 0 0 0
8 2 0.498673 0.498776 0.566591 0 0 0
9 2 0.499463 0.501207 0.60119 0 0 0
10 3 0.499998 0.500004 0.63309 0 0 0
ITEM: TIMESTEP
9
ITEM: NUMBER OF ATOMS
10
ITEM: BOX BOUNDS pp pp pp
-15 15
-15 15
-15 15
ITEM: ATOMS id type xs ys zs ix iy iz
1 1 0.5 0.5 0.333333 0 0 0
2 2 0.50002 0.498278 0.365389 0 0 0
3 2 0.50083 0.49987 0.401238 0 0 0
4 2 0.498672 0.501777 0.433091 0 0 0
5 2 0.502115 0.500578 0.46662 0 0 0
6 2 0.500961 0.497707 0.499474 0 0 0
7 2 0.498543 0.501501 0.533414 0 0 0
8 2 0.498473 0.498646 0.566632 0 0 0
9 2 0.499373 0.501356 0.601222 0 0 0
10 3 0.499998 0.500004 0.633075 0 0 0
ITEM: TIMESTEP
10
ITEM: NUMBER OF ATOMS
10
ITEM: BOX BOUNDS pp pp pp
-15 15
-15 15
-15 15
ITEM: ATOMS id type xs ys zs ix iy iz
1 1 0.5 0.5 0.333333 0 0 0
2 2 0.500078 0.498045 0.365439 0 0 0
3 2 0.500902 0.499797 0.401126 0 0 0
4 2 0.498556 0.501979 0.43327 0 0 0
5 2 0.502342 0.500649 0.466581 0 0 0
6 2 0.501038 0.497467 0.499483 0 0 0
7 2 0.498362 0.501606 0.533347 0 0 0
8 2 0.498248 0.498537 0.566684 0 0 0
9 2 0.499298 0.50152 0.601218 0 0 0
10 3 0.499998 0.500005 0.633072 0 0 0
ITEM: TIMESTEP
11
ITEM: NUMBER OF ATOMS
10
ITEM: BOX BOUNDS pp pp pp
-15 15
-15 15
-15 15
ITEM: ATOMS id type xs ys zs ix iy iz
1 1 0.5 0.5 0.333333 0 0 0
2 2 0.500126 0.497809 0.365555 0 0 0
3 2 0.500988 0.499731 0.400962 0 0 0
4 2 0.498468 0.502199 0.43346 0 0 0
5 2 0.502544 0.500737 0.466556 0 0 0
6 2 0.50112 0.497212 0.499492 0 0 0
7 2 0.498203 0.501685 0.533244 0 0 0
8 2 0.498038 0.49844 0.566743 0 0 0
9 2 0.499204 0.501673 0.60117 0 0 0
10 3 0.499998 0.500005 0.633081 0 0 0
ITEM: TIMESTEP
12
ITEM: NUMBER OF ATOMS
10
ITEM: BOX BOUNDS pp pp pp
-15 15
-15 15
-15 15
ITEM: ATOMS id type xs ys zs ix iy iz
1 1 0.5 0.5 0.333333 0 0 0
2 2 0.500203 0.497592 0.365719 0 0 0
3 2 0.501051 0.499653 0.400768 0 0 0
4 2 0.498365 0.502412 0.43365 0 0 0
5 2 0.502753 0.500835 0.466534 0 0 0
6 2 0.501228 0.496987 0.499525 0 0 0
7 2 0.49804 0.501778 0.533147 0 0 0
8 2 0.497834 0.498371 0.566834 0 0 0
9 2 0.499111 0.501847 0.60107 0 0 0
10 3 0.499998 0.500006 0.6331 0 0 0
ITEM: TIMESTEP
13
ITEM: NUMBER OF ATOMS
10
ITEM: BOX BOUNDS pp pp pp
-15 15
-15 15
-15 15
ITEM: ATOMS id type xs ys zs ix iy iz
1 1 0.5 0.5 0.333333 0 0 0
2 2 0.500299 0.497394 0.365922 0 0 0
3 2 0.501091 0.499588 0.400553 0 0 0
4 2 0.498272 0.502595 0.433855 0 0 0
5 2 0.502946 0.500937 0.466486 0 0 0
6 2 0.501309 0.496758 0.499593 0 0 0
7 2 0.497887 0.501856 0.533039 0 0 0
8 2 0.497611 0.498314 0.56695 0 0 0
9 2 0.499003 0.502043 0.600937 0 0 0
10 3 0.499998 0.500006 0.633125 0 0 0
ITEM: TIMESTEP
14
ITEM: NUMBER OF ATOMS
10
ITEM: BOX BOUNDS pp pp pp
-15 15
-15 15
-15 15
ITEM: ATOMS id type xs ys zs ix iy iz
1 1 0.5 0.5 0.333333 0 0 0
2 2 0.500421 0.497215 0.366137 0 0 0
3 2 0.501101 0.499508 0.400297 0 0 0
4 2 0.498158 0.502802 0.434078 0 0 0
5 2 0.503123 0.501064 0.46645 0 0 0
6 2 0.501397 0.496528 0.49968 0 0 0
7 2 0.497752 0.501945 0.532942 0 0 0
8 2 0.497382 0.498267 0.567055 0 0 0
9 2 0.498884 0.502259 0.600792 0 0 0
10 3 0.499997 0.500007 0.633153 0 0 0
ITEM: TIMESTEP
15
ITEM: NUMBER OF ATOMS
10
ITEM: BOX BOUNDS pp pp pp
-15 15
-15 15
-15 15
ITEM: ATOMS id type xs ys zs ix iy iz
1 1 0.5 0.5 0.333333 0 0 0
2 2 0.500539 0.497055 0.366357 0 0 0
3 2 0.501104 0.499425 0.40004 0 0 0
4 2 0.498035 0.503004 0.434271 0 0 0
5 2 0.503317 0.501181 0.466453 0 0 0
6 2 0.501491 0.49632 0.49979 0 0 0
7 2 0.497617 0.502025 0.532842 0 0 0
8 2 0.497146 0.498245 0.567157 0 0 0
9 2 0.498776 0.502459 0.600628 0 0 0
10 3 0.499997 0.500008 0.63318 0 0 0
ITEM: TIMESTEP
16
ITEM: NUMBER OF ATOMS
10
ITEM: BOX BOUNDS pp pp pp
-15 15
-15 15
-15 15
ITEM: ATOMS id type xs ys zs ix iy iz
1 1 0.5 0.5 0.333333 0 0 0
2 2 0.500635 0.496926 0.366577 0 0 0
3 2 0.501131 0.499359 0.3998 0 0 0
4 2 0.497908 0.503214 0.434443 0 0 0
5 2 0.503497 0.501312 0.466489 0 0 0
6 2 0.501554 0.49614 0.499877 0 0 0
7 2 0.497491 0.502095 0.532761 0 0 0
8 2 0.496905 0.498213 0.56724 0 0 0
9 2 0.498646 0.502635 0.60047 0 0 0
10 3 0.499995 0.500011 0.633202 0 0 0
ITEM: TIMESTEP
17
ITEM: NUMBER OF ATOMS
10
ITEM: BOX BOUNDS pp pp pp
-15 15
-15 15
-15 15
ITEM: ATOMS id type xs ys zs ix iy iz
1 1 0.5 0.5 0.333333 0 0 0
2 2 0.500709 0.496774 0.366801 0 0 0
3 2 0.501176 0.499294 0.399596 0 0 0
4 2 0.497808 0.503431 0.434576 0 0 0
5 2 0.503645 0.501423 0.466546 0 0 0
6 2 0.501632 0.495976 0.499951 0 0 0
7 2 0.497384 0.502152 0.53271 0 0 0
8 2 0.496667 0.498176 0.567294 0 0 0
9 2 0.498527 0.50282 0.600312 0 0 0
10 3 0.499993 0.500015 0.633215 0 0 0
ITEM: TIMESTEP
18
ITEM: NUMBER OF ATOMS
10
ITEM: BOX BOUNDS pp pp pp
-15 15
-15 15
-15 15
ITEM: ATOMS id type xs ys zs ix iy iz
1 1 0.5 0.5 0.333333 0 0 0
2 2 0.500766 0.496607 0.366996 0 0 0
3 2 0.501216 0.49926 0.399418 0 0 0
4 2 0.497735 0.503628 0.434701 0 0 0
5 2 0.503768 0.501505 0.466631 0 0 0
6 2 0.501702 0.495814 0.500001 0 0 0
7 2 0.497303 0.502198 0.532671 0 0 0
8 2 0.496409 0.498118 0.567323 0 0 0
9 2 0.498396 0.502972 0.600139 0 0 0
10 3 0.499991 0.50002 0.633215 0 0 0
ITEM: TIMESTEP
19
ITEM: NUMBER OF ATOMS
10
ITEM: BOX BOUNDS pp pp pp
-15 15
-15 15
-15 15
ITEM: ATOMS id type xs ys zs ix iy iz
1 1 0.5 0.5 0.333333 0 0 0
2 2 0.500807 0.496452 0.367143 0 0 0
3 2 0.501241 0.499212 0.39929 0 0 0
4 2 0.497683 0.503837 0.434796 0 0 0
5 2 0.50388 0.50158 0.466729 0 0 0
6 2 0.50175 0.495683 0.500067 0 0 0
7 2 0.497198 0.502244 0.532645 0 0 0
8 2 0.496159 0.498046 0.567329 0 0 0
9 2 0.498289 0.503121 0.599987 0 0 0
10 3 0.499987 0.500028 0.6332 0 0 0
ITEM: TIMESTEP
20
ITEM: NUMBER OF ATOMS
10
ITEM: BOX BOUNDS pp pp pp
-15 15
-15 15
-15 15
ITEM: ATOMS id type xs ys zs ix iy iz
1 1 0.5 0.5 0.333333 0 0 0
2 2 0.500865 0.496284 0.367263 0 0 0
3 2 0.501277 0.499196 0.399226 0 0 0
4 2 0.497621 0.504044 0.434834 0 0 0
5 2 0.503994 0.501644 0.466871 0 0 0
6 2 0.501768 0.495585 0.500136 0 0 0
7 2 0.497088 0.50226 0.532648 0 0 0
8 2 0.49592 0.497993 0.567288 0 0 0
9 2 0.498206 0.503262 0.599867 0 0 0
10 3 0.499981 0.500038 0.633168 0 0 0
ITEM: TIMESTEP
21
ITEM: NUMBER OF ATOMS
10
ITEM: BOX BOUNDS pp pp pp
-15 15
-15 15
-15 15
ITEM: ATOMS id type xs ys zs ix iy iz
1 1 0.5 0.5 0.333333 0 0 0
2 2 0.500947 0.496094 0.367353 0 0 0
3 2 0.501305 0.4992 0.399207 0 0 0
4 2 0.497579 0.504246 0.434842 0 0 0
5 2 0.504118 0.501702 0.467047 0 0 0
6 2 0.501773 0.495522 0.500185 0 0 0
7 2 0.496956 0.502266 0.532644 0 0 0
8 2 0.495684 0.49797 0.567226 0 0 0
9 2 0.498143 0.503422 0.599764 0 0 0
10 3 0.499975 0.500051 0.633116 0 0 0
ITEM: TIMESTEP
22
ITEM: NUMBER OF ATOMS
10
ITEM: BOX BOUNDS pp pp pp
-15 15
-15 15
-15 15
ITEM: ATOMS id type xs ys zs ix iy iz
1 1 0.5 0.5 0.333333 0 0 0
2 2 0.501018 0.495909 0.367398 0 0 0
3 2 0.5013 0.499221 0.399224 0 0 0
4 2 0.497533 0.504442 0.434843 0 0 0
5 2 0.504217 0.501768 0.467238 0 0 0
6 2 0.501787 0.495478 0.500224 0 0 0
7 2 0.496816 0.502271 0.532665 0 0 0
8 2 0.495476 0.497944 0.567135 0 0 0
9 2 0.498092 0.503573 0.599659 0 0 0
10 3 0.499966 0.500066 0.633045 0 0 0
ITEM: TIMESTEP
23
ITEM: NUMBER OF ATOMS
10
ITEM: BOX BOUNDS pp pp pp
-15 15
-15 15
-15 15
ITEM: ATOMS id type xs ys zs ix iy iz
1 1 0.5 0.5 0.333333 0 0 0
2 2 0.501073 0.49571 0.367401 0 0 0
3 2 0.501312 0.499237 0.399318 0 0 0
4 2 0.497501 0.504656 0.43483 0 0 0
5 2 0.504305 0.501827 0.467411 0 0 0
6 2 0.501816 0.495439 0.500289 0 0 0
7 2 0.496676 0.502277 0.532696 0 0 0
8 2 0.495271 0.497928 0.567031 0 0 0
9 2 0.498029 0.503704 0.599569 0 0 0
10 3 0.499957 0.500085 0.632953 0 0 0
ITEM: TIMESTEP
24
ITEM: NUMBER OF ATOMS
10
ITEM: BOX BOUNDS pp pp pp
-15 15
-15 15
-15 15
ITEM: ATOMS id type xs ys zs ix iy iz
1 1 0.5 0.5 0.333333 0 0 0
2 2 0.501122 0.495518 0.367361 0 0 0
3 2 0.501343 0.499247 0.399481 0 0 0
4 2 0.497495 0.504877 0.43481 0 0 0
5 2 0.504413 0.501907 0.467611 0 0 0
6 2 0.50184 0.495418 0.500341 0 0 0
7 2 0.496561 0.50228 0.532716 0 0 0
8 2 0.495065 0.497936 0.566918 0 0 0
9 2 0.497984 0.503826 0.599511 0 0 0
10 3 0.499945 0.500107 0.632841 0 0 0
ITEM: TIMESTEP
25
ITEM: NUMBER OF ATOMS
10
ITEM: BOX BOUNDS pp pp pp
-15 15
-15 15
-15 15
ITEM: ATOMS id type xs ys zs ix iy iz
1 1 0.5 0.5 0.333333 0 0 0
2 2 0.501165 0.495337 0.367285 0 0 0
3 2 0.501359 0.499272 0.399671 0 0 0
4 2 0.497513 0.505087 0.434767 0 0 0
5 2 0.504495 0.501996 0.467835 0 0 0
6 2 0.501846 0.495428 0.500385 0 0 0
7 2 0.496431 0.502266 0.532735 0 0 0
8 2 0.494848 0.497931 0.566813 0 0 0
9 2 0.497942 0.503921 0.599487 0 0 0
10 3 0.499932 0.500132 0.632708 0 0 0
ITEM: TIMESTEP
26
ITEM: NUMBER OF ATOMS
10
ITEM: BOX BOUNDS pp pp pp
-15 15
-15 15
-15 15
ITEM: ATOMS id type xs ys zs ix iy iz
1 1 0.5 0.5 0.333333 0 0 0
2 2 0.501215 0.495192 0.367167 0 0 0
3 2 0.50135 0.499329 0.399878 0 0 0
4 2 0.497568 0.5053 0.434686 0 0 0
5 2 0.504569 0.502054 0.46803 0 0 0
6 2 0.50185 0.495467 0.500438 0 0 0
7 2 0.496298 0.502269 0.532781 0 0 0
8 2 0.494636 0.497947 0.566684 0 0 0
9 2 0.497902 0.50402 0.599462 0 0 0
10 3 0.499917 0.50016 0.632557 0 0 0
ITEM: TIMESTEP
27
ITEM: NUMBER OF ATOMS
10
ITEM: BOX BOUNDS pp pp pp
-15 15
-15 15
-15 15
ITEM: ATOMS id type xs ys zs ix iy iz
1 1 0.5 0.5 0.333333 0 0 0
2 2 0.501286 0.495031 0.367039 0 0 0
3 2 0.501328 0.499385 0.400108 0 0 0
4 2 0.497656 0.505494 0.434588 0 0 0
5 2 0.504607 0.502127 0.468187 0 0 0
6 2 0.501833 0.495521 0.500491 0 0 0
7 2 0.496178 0.502274 0.532813 0 0 0
8 2 0.494451 0.497996 0.566531 0 0 0
9 2 0.497859 0.504097 0.59946 0 0 0
10 3 0.4999 0.500191 0.632388 0 0 0
ITEM: TIMESTEP
28
ITEM: NUMBER OF ATOMS
10
ITEM: BOX BOUNDS pp pp pp
-15 15
-15 15
-15 15
ITEM: ATOMS id type xs ys zs ix iy iz
1 1 0.5 0.5 0.333333 0 0 0
2 2 0.501383 0.494889 0.366896 0 0 0
3 2 0.501329 0.49946 0.400384 0 0 0
4 2 0.497771 0.505703 0.434498 0 0 0
5 2 0.504652 0.502181 0.468301 0 0 0
6 2 0.501829 0.495595 0.500537 0 0 0
7 2 0.496035 0.502271 0.532865 0 0 0
8 2 0.494298 0.498028 0.566375 0 0 0
9 2 0.497831 0.504138 0.599442 0 0 0
10 3 0.499883 0.500225 0.632205 0 0 0
ITEM: TIMESTEP
29
ITEM: NUMBER OF ATOMS
10
ITEM: BOX BOUNDS pp pp pp
-15 15
-15 15
-15 15
ITEM: ATOMS id type xs ys zs ix iy iz
1 1 0.5 0.5 0.333333 0 0 0
2 2 0.501503 0.494775 0.366724 0 0 0
3 2 0.50133 0.499565 0.400662 0 0 0
4 2 0.497877 0.505886 0.43443 0 0 0
5 2 0.504676 0.502251 0.468422 0 0 0
6 2 0.501802 0.495654 0.500616 0 0 0
7 2 0.495874 0.502239 0.532895 0 0 0
8 2 0.494143 0.498062 0.566239 0 0 0
9 2 0.497795 0.504174 0.599386 0 0 0
10 3 0.499863 0.500261 0.632009 0 0 0
ITEM: TIMESTEP
30
ITEM: NUMBER OF ATOMS
10
ITEM: BOX BOUNDS pp pp pp
-15 15
-15 15
-15 15
ITEM: ATOMS id type xs ys zs ix iy iz
1 1 0.5 0.5 0.333333 0 0 0
2 2 0.501625 0.494654 0.366578 0 0 0
3 2 0.501311 0.499675 0.400929 0 0 0
4 2 0.49801 0.506071 0.434381 0 0 0
5 2 0.504716 0.502344 0.468527 0 0 0
6 2 0.501783 0.495702 0.500701 0 0 0
7 2 0.495742 0.502172 0.532926 0 0 0
8 2 0.493983 0.498078 0.566105 0 0 0
9 2 0.497749 0.50418 0.599337 0 0 0
10 3 0.499843 0.500299 0.631804 0 0 0
ITEM: TIMESTEP
31
ITEM: NUMBER OF ATOMS
10
ITEM: BOX BOUNDS pp pp pp
-15 15
-15 15
-15 15
ITEM: ATOMS id type xs ys zs ix iy iz
1 1 0.5 0.5 0.333333 0 0 0
2 2 0.501768 0.494559 0.366446 0 0 0
3 2 0.501269 0.499779 0.401185 0 0 0
4 2 0.498144 0.506219 0.434343 0 0 0
5 2 0.504746 0.502466 0.468609 0 0 0
6 2 0.501785 0.495736 0.500777 0 0 0
7 2 0.495591 0.502115 0.532946 0 0 0
8 2 0.493854 0.498087 0.566007 0 0 0
9 2 0.497712 0.504205 0.599293 0 0 0
10 3 0.499822 0.50034 0.631591 0 0 0
ITEM: TIMESTEP
32
ITEM: NUMBER OF ATOMS
10
ITEM: BOX BOUNDS pp pp pp
-15 15
-15 15
-15 15
ITEM: ATOMS id type xs ys zs ix iy iz
1 1 0.5 0.5 0.333333 0 0 0
2 2 0.501909 0.494502 0.366339 0 0 0
3 2 0.501197 0.499872 0.401403 0 0 0
4 2 0.498311 0.506346 0.434307 0 0 0
5 2 0.504766 0.502566 0.468649 0 0 0
6 2 0.501809 0.495798 0.50084 0 0 0
7 2 0.495434 0.502065 0.532951 0 0 0
8 2 0.493756 0.498085 0.565897 0 0 0
9 2 0.497685 0.504205 0.599244 0 0 0
10 3 0.4998 0.500381 0.631375 0 0 0
ITEM: TIMESTEP
33
ITEM: NUMBER OF ATOMS
10
ITEM: BOX BOUNDS pp pp pp
-15 15
-15 15
-15 15
ITEM: ATOMS id type xs ys zs ix iy iz
1 1 0.5 0.5 0.333333 0 0 0
2 2 0.502057 0.494429 0.366278 0 0 0
3 2 0.501148 0.499972 0.401613 0 0 0
4 2 0.498509 0.506483 0.434289 0 0 0
5 2 0.504803 0.502662 0.46867 0 0 0
6 2 0.501854 0.495853 0.500927 0 0 0
7 2 0.495277 0.502013 0.532932 0 0 0
8 2 0.493648 0.498087 0.565815 0 0 0
9 2 0.497682 0.504173 0.599161 0 0 0
10 3 0.499777 0.500424 0.631158 0 0 0
ITEM: TIMESTEP
34
ITEM: NUMBER OF ATOMS
10
ITEM: BOX BOUNDS pp pp pp
-15 15
-15 15
-15 15
ITEM: ATOMS id type xs ys zs ix iy iz
1 1 0.5 0.5 0.333333 0 0 0
2 2 0.502181 0.494382 0.366229 0 0 0
3 2 0.501111 0.500057 0.401776 0 0 0
4 2 0.498731 0.506587 0.434262 0 0 0
5 2 0.504835 0.502782 0.468664 0 0 0
6 2 0.501902 0.495911 0.501 0 0 0
7 2 0.495146 0.501971 0.532923 0 0 0
8 2 0.493525 0.498125 0.565771 0 0 0
9 2 0.497678 0.504141 0.599031 0 0 0
10 3 0.499754 0.500468 0.630943 0 0 0
ITEM: TIMESTEP
35
ITEM: NUMBER OF ATOMS
10
ITEM: BOX BOUNDS pp pp pp
-15 15
-15 15
-15 15
ITEM: ATOMS id type xs ys zs ix iy iz
1 1 0.5 0.5 0.333333 0 0 0
2 2 0.502319 0.494327 0.366234 0 0 0
3 2 0.501046 0.500166 0.401896 0 0 0
4 2 0.498964 0.506702 0.434273 0 0 0
5 2 0.504881 0.502915 0.468612 0 0 0
6 2 0.501957 0.496002 0.501088 0 0 0
7 2 0.495031 0.501931 0.532939 0 0 0
8 2 0.493395 0.498147 0.565728 0 0 0
9 2 0.497661 0.504114 0.598878 0 0 0
10 3 0.499731 0.500512 0.630733 0 0 0
ITEM: TIMESTEP
36
ITEM: NUMBER OF ATOMS
10
ITEM: BOX BOUNDS pp pp pp
-15 15
-15 15
-15 15
ITEM: ATOMS id type xs ys zs ix iy iz
1 1 0.5 0.5 0.333333 0 0 0
2 2 0.502441 0.494286 0.366264 0 0 0
3 2 0.500966 0.50025 0.402011 0 0 0
4 2 0.499213 0.506824 0.434285 0 0 0
5 2 0.504942 0.503033 0.46854 0 0 0
6 2 0.502038 0.496084 0.501158 0 0 0
7 2 0.494938 0.501861 0.532929 0 0 0
8 2 0.493292 0.49816 0.565697 0 0 0
9 2 0.497634 0.504061 0.598683 0 0 0
10 3 0.499707 0.500556 0.630529 0 0 0
ITEM: TIMESTEP
37
ITEM: NUMBER OF ATOMS
10
ITEM: BOX BOUNDS pp pp pp
-15 15
-15 15
-15 15
ITEM: ATOMS id type xs ys zs ix iy iz
1 1 0.5 0.5 0.333333 0 0 0
2 2 0.502552 0.494275 0.366308 0 0 0
3 2 0.500875 0.500355 0.402115 0 0 0
4 2 0.49946 0.506943 0.434303 0 0 0
5 2 0.504999 0.503137 0.468436 0 0 0
6 2 0.502097 0.496202 0.501244 0 0 0
7 2 0.494839 0.501769 0.532918 0 0 0
8 2 0.493202 0.498204 0.565666 0 0 0
9 2 0.49761 0.50398 0.598464 0 0 0
10 3 0.499684 0.5006 0.630331 0 0 0
ITEM: TIMESTEP
38
ITEM: NUMBER OF ATOMS
10
ITEM: BOX BOUNDS pp pp pp
-15 15
-15 15
-15 15
ITEM: ATOMS id type xs ys zs ix iy iz
1 1 0.5 0.5 0.333333 0 0 0
2 2 0.502672 0.494291 0.366397 0 0 0
3 2 0.500758 0.500458 0.402168 0 0 0
4 2 0.499726 0.507026 0.434358 0 0 0
5 2 0.505073 0.503246 0.468342 0 0 0
6 2 0.502173 0.496345 0.501296 0 0 0
7 2 0.49477 0.501689 0.532914 0 0 0
8 2 0.49312 0.498269 0.565621 0 0 0
9 2 0.497587 0.503913 0.598216 0 0 0
10 3 0.49966 0.500645 0.63014 0 0 0
ITEM: TIMESTEP
39
ITEM: NUMBER OF ATOMS
10
ITEM: BOX BOUNDS pp pp pp
-15 15
-15 15
-15 15
ITEM: ATOMS id type xs ys zs ix iy iz
1 1 0.5 0.5 0.333333 0 0 0
2 2 0.50276 0.494307 0.366524 0 0 0
3 2 0.500665 0.500531 0.402163 0 0 0
4 2 0.500003 0.507119 0.434413 0 0 0
5 2 0.505126 0.503378 0.468218 0 0 0
6 2 0.502262 0.496482 0.501317 0 0 0
7 2 0.494679 0.501584 0.53293 0 0 0
8 2 0.493034 0.49834 0.565582 0 0 0
9 2 0.497545 0.503857 0.597935 0 0 0
10 3 0.499636 0.50069 0.629954 0 0 0
ITEM: TIMESTEP
40
ITEM: NUMBER OF ATOMS
10
ITEM: BOX BOUNDS pp pp pp
-15 15
-15 15
-15 15
ITEM: ATOMS id type xs ys zs ix iy iz
1 1 0.5 0.5 0.333333 0 0 0
2 2 0.502857 0.494314 0.366699 0 0 0
3 2 0.500572 0.500595 0.40212 0 0 0
4 2 0.500269 0.507181 0.434467 0 0 0
5 2 0.50516 0.503498 0.468098 0 0 0
6 2 0.502334 0.496651 0.501326 0 0 0
7 2 0.494601 0.501471 0.532968 0 0 0
8 2 0.492929 0.498428 0.565537 0 0 0
9 2 0.497498 0.503788 0.597643 0 0 0
10 3 0.499612 0.500735 0.629772 0 0 0
ITEM: TIMESTEP
41
ITEM: NUMBER OF ATOMS
10
ITEM: BOX BOUNDS pp pp pp
-15 15
-15 15
-15 15
ITEM: ATOMS id type xs ys zs ix iy iz
1 1 0.5 0.5 0.333333 0 0 0
2 2 0.502936 0.49435 0.366918 0 0 0
3 2 0.500475 0.500662 0.402063 0 0 0
4 2 0.500542 0.507256 0.43451 0 0 0
5 2 0.505192 0.503594 0.467975 0 0 0
6 2 0.502393 0.496844 0.501347 0 0 0
7 2 0.494529 0.501359 0.533025 0 0 0
8 2 0.492825 0.498493 0.565491 0 0 0
9 2 0.497462 0.503733 0.597319 0 0 0
10 3 0.499587 0.500781 0.629591 0 0 0
ITEM: TIMESTEP
42
ITEM: NUMBER OF ATOMS
10
ITEM: BOX BOUNDS pp pp pp
-15 15
-15 15
-15 15
ITEM: ATOMS id type xs ys zs ix iy iz
1 1 0.5 0.5 0.333333 0 0 0
2 2 0.503033 0.49442 0.367167 0 0 0
3 2 0.500359 0.500704 0.40198 0 0 0
4 2 0.500822 0.507328 0.434543 0 0 0
5 2 0.505218 0.503704 0.467865 0 0 0
6 2 0.502423 0.497023 0.501343 0 0 0
7 2 0.494458 0.501239 0.533078 0 0 0
8 2 0.492709 0.498537 0.56544 0 0 0
9 2 0.497419 0.5037 0.596989 0 0 0
10 3 0.499562 0.500828 0.629408 0 0 0
ITEM: TIMESTEP
43
ITEM: NUMBER OF ATOMS
10
ITEM: BOX BOUNDS pp pp pp
-15 15
-15 15
-15 15
ITEM: ATOMS id type xs ys zs ix iy iz
1 1 0.5 0.5 0.333333 0 0 0
2 2 0.503142 0.494526 0.367409 0 0 0
3 2 0.500253 0.50075 0.401896 0 0 0
4 2 0.501084 0.507417 0.434575 0 0 0
5 2 0.505222 0.503782 0.467743 0 0 0
6 2 0.50245 0.497212 0.501296 0 0 0
7 2 0.494388 0.50113 0.53314 0 0 0
8 2 0.492594 0.498565 0.565408 0 0 0
9 2 0.497348 0.50364 0.596688 0 0 0
10 3 0.499536 0.500876 0.62922 0 0 0
ITEM: TIMESTEP
44
ITEM: NUMBER OF ATOMS
10
ITEM: BOX BOUNDS pp pp pp
-15 15
-15 15
-15 15
ITEM: ATOMS id type xs ys zs ix iy iz
1 1 0.5 0.5 0.333333 0 0 0
2 2 0.50326 0.49466 0.36765 0 0 0
3 2 0.500124 0.50077 0.401777 0 0 0
4 2 0.501361 0.507495 0.434599 0 0 0
5 2 0.50521 0.503879 0.467602 0 0 0
6 2 0.502473 0.497406 0.501221 0 0 0
7 2 0.494305 0.501042 0.533203 0 0 0
8 2 0.492496 0.498602 0.565372 0 0 0
9 2 0.497269 0.503603 0.596414 0 0 0
10 3 0.499508 0.500925 0.629027 0 0 0
ITEM: TIMESTEP
45
ITEM: NUMBER OF ATOMS
10
ITEM: BOX BOUNDS pp pp pp
-15 15
-15 15
-15 15
ITEM: ATOMS id type xs ys zs ix iy iz
1 1 0.5 0.5 0.333333 0 0 0
2 2 0.503341 0.49483 0.367904 0 0 0
3 2 0.500011 0.500809 0.401667 0 0 0
4 2 0.501634 0.507565 0.434622 0 0 0
5 2 0.505177 0.503961 0.46748 0 0 0
6 2 0.502509 0.497581 0.501148 0 0 0
7 2 0.494253 0.500939 0.533274 0 0 0
8 2 0.492406 0.498616 0.565353 0 0 0
9 2 0.497189 0.503549 0.596185 0 0 0
10 3 0.49948 0.500976 0.628825 0 0 0
ITEM: TIMESTEP
46
ITEM: NUMBER OF ATOMS
10
ITEM: BOX BOUNDS pp pp pp
-15 15
-15 15
-15 15
ITEM: ATOMS id type xs ys zs ix iy iz
1 1 0.5 0.5 0.333333 0 0 0
2 2 0.503426 0.495001 0.368167 0 0 0
3 2 0.499886 0.500823 0.401558 0 0 0
4 2 0.501922 0.507637 0.434632 0 0 0
5 2 0.505111 0.504009 0.467396 0 0 0
6 2 0.502532 0.497789 0.50106 0 0 0
7 2 0.494213 0.500807 0.533325 0 0 0
8 2 0.492303 0.498622 0.565312 0 0 0
9 2 0.497085 0.503479 0.595981 0 0 0
10 3 0.499451 0.501028 0.628615 0 0 0
ITEM: TIMESTEP
47
ITEM: NUMBER OF ATOMS
10
ITEM: BOX BOUNDS pp pp pp
-15 15
-15 15
-15 15
ITEM: ATOMS id type xs ys zs ix iy iz
1 1 0.5 0.5 0.333333 0 0 0
2 2 0.503486 0.495201 0.368426 0 0 0
3 2 0.499781 0.500814 0.401458 0 0 0
4 2 0.50218 0.507722 0.434632 0 0 0
5 2 0.505042 0.50404 0.467356 0 0 0
6 2 0.502535 0.497981 0.500988 0 0 0
7 2 0.494204 0.500692 0.533374 0 0 0
8 2 0.492213 0.49865 0.565235 0 0 0
9 2 0.497012 0.503436 0.595835 0 0 0
10 3 0.49942 0.501081 0.628398 0 0 0
ITEM: TIMESTEP
48
ITEM: NUMBER OF ATOMS
10
ITEM: BOX BOUNDS pp pp pp
-15 15
-15 15
-15 15
ITEM: ATOMS id type xs ys zs ix iy iz
1 1 0.5 0.5 0.333333 0 0 0
2 2 0.503509 0.495434 0.368684 0 0 0
3 2 0.499667 0.500787 0.401374 0 0 0
4 2 0.502444 0.507795 0.434613 0 0 0
5 2 0.504992 0.504087 0.467303 0 0 0
6 2 0.502533 0.498211 0.500929 0 0 0
7 2 0.494223 0.500565 0.533416 0 0 0
8 2 0.4921 0.498697 0.565141 0 0 0
9 2 0.496952 0.503422 0.595704 0 0 0
10 3 0.499388 0.501136 0.628173 0 0 0
ITEM: TIMESTEP
49
ITEM: NUMBER OF ATOMS
10
ITEM: BOX BOUNDS pp pp pp
-15 15
-15 15
-15 15
ITEM: ATOMS id type xs ys zs ix iy iz
1 1 0.5 0.5 0.333333 0 0 0
2 2 0.503521 0.495669 0.368921 0 0 0
3 2 0.49953 0.500751 0.401306 0 0 0
4 2 0.502697 0.50785 0.434604 0 0 0
5 2 0.504925 0.504133 0.467247 0 0 0
6 2 0.502529 0.498433 0.500854 0 0 0
7 2 0.494259 0.500435 0.533417 0 0 0
8 2 0.492006 0.498719 0.565054 0 0 0
9 2 0.49691 0.503391 0.595606 0 0 0
10 3 0.499356 0.501191 0.627944 0 0 0
ITEM: TIMESTEP
50
ITEM: NUMBER OF ATOMS
10
ITEM: BOX BOUNDS pp pp pp
-15 15
-15 15
-15 15
ITEM: ATOMS id type xs ys zs ix iy iz
1 1 0.5 0.5 0.333333 0 0 0
2 2 0.503531 0.495908 0.369151 0 0 0
3 2 0.49941 0.500732 0.401253 0 0 0
4 2 0.502939 0.507899 0.434597 0 0 0
5 2 0.504864 0.504195 0.467182 0 0 0
6 2 0.502548 0.498667 0.50076 0 0 0
7 2 0.494304 0.500284 0.533381 0 0 0
8 2 0.491885 0.498708 0.564982 0 0 0
9 2 0.496848 0.503359 0.595568 0 0 0
10 3 0.499322 0.501247 0.627713 0 0 0
ITEM: TIMESTEP
51
ITEM: NUMBER OF ATOMS
10
ITEM: BOX BOUNDS pp pp pp
-15 15
-15 15
-15 15
ITEM: ATOMS id type xs ys zs ix iy iz
1 1 0.5 0.5 0.333333 0 0 0
2 2 0.503527 0.496171 0.369363 0 0 0
3 2 0.499308 0.500692 0.401197 0 0 0
4 2 0.503164 0.507945 0.434577 0 0 0
5 2 0.504804 0.504237 0.467158 0 0 0
6 2 0.502554 0.498935 0.500668 0 0 0
7 2 0.494332 0.500116 0.533299 0 0 0
8 2 0.491788 0.498675 0.564903 0 0 0
9 2 0.496783 0.503357 0.595567 0 0 0
10 3 0.499288 0.501303 0.627483 0 0 0
ITEM: TIMESTEP
52
ITEM: NUMBER OF ATOMS
10
ITEM: BOX BOUNDS pp pp pp
-15 15
-15 15
-15 15
ITEM: ATOMS id type xs ys zs ix iy iz
1 1 0.5 0.5 0.333333 0 0 0
2 2 0.503538 0.496459 0.369549 0 0 0
3 2 0.499221 0.500662 0.401196 0 0 0
4 2 0.503407 0.508005 0.434544 0 0 0
5 2 0.504748 0.504257 0.467149 0 0 0
6 2 0.502543 0.499233 0.50059 0 0 0
7 2 0.494392 0.499924 0.533209 0 0 0
8 2 0.491662 0.498617 0.564823 0 0 0
9 2 0.496705 0.503341 0.595578 0 0 0
10 3 0.499254 0.50136 0.627261 0 0 0
ITEM: TIMESTEP
53
ITEM: NUMBER OF ATOMS
10
ITEM: BOX BOUNDS pp pp pp
-15 15
-15 15
-15 15
ITEM: ATOMS id type xs ys zs ix iy iz
1 1 0.5 0.5 0.333333 0 0 0
2 2 0.503546 0.496732 0.369675 0 0 0
3 2 0.499138 0.500619 0.401225 0 0 0
4 2 0.503643 0.508029 0.434508 0 0 0
5 2 0.504698 0.504273 0.467138 0 0 0
6 2 0.502524 0.499528 0.500488 0 0 0
7 2 0.494475 0.499732 0.533059 0 0 0
8 2 0.491528 0.498575 0.564721 0 0 0
9 2 0.496639 0.503317 0.595585 0 0 0
10 3 0.49922 0.501416 0.627051 0 0 0
ITEM: TIMESTEP
54
ITEM: NUMBER OF ATOMS
10
ITEM: BOX BOUNDS pp pp pp
-15 15
-15 15
-15 15
ITEM: ATOMS id type xs ys zs ix iy iz
1 1 0.5 0.5 0.333333 0 0 0
2 2 0.503576 0.497004 0.36976 0 0 0
3 2 0.499072 0.500601 0.401307 0 0 0
4 2 0.503865 0.508057 0.434437 0 0 0
5 2 0.504661 0.504286 0.467163 0 0 0
6 2 0.502498 0.499808 0.500409 0 0 0
7 2 0.494543 0.499525 0.532878 0 0 0
8 2 0.491392 0.498544 0.564608 0 0 0
9 2 0.496576 0.503274 0.595575 0 0 0
10 3 0.499187 0.501471 0.626861 0 0 0
ITEM: TIMESTEP
55
ITEM: NUMBER OF ATOMS
10
ITEM: BOX BOUNDS pp pp pp
-15 15
-15 15
-15 15
ITEM: ATOMS id type xs ys zs ix iy iz
1 1 0.5 0.5 0.333333 0 0 0
2 2 0.503604 0.49729 0.36976 0 0 0
3 2 0.498998 0.500568 0.401419 0 0 0
4 2 0.504084 0.508076 0.434341 0 0 0
5 2 0.504599 0.504273 0.467215 0 0 0
6 2 0.502442 0.500112 0.500353 0 0 0
7 2 0.494613 0.499346 0.532647 0 0 0
8 2 0.491234 0.498514 0.564505 0 0 0
9 2 0.496488 0.503239 0.595577 0 0 0
10 3 0.499156 0.501526 0.626695 0 0 0
ITEM: TIMESTEP
56
ITEM: NUMBER OF ATOMS
10
ITEM: BOX BOUNDS pp pp pp
-15 15
-15 15
-15 15
ITEM: ATOMS id type xs ys zs ix iy iz
1 1 0.5 0.5 0.333333 0 0 0
2 2 0.503649 0.497576 0.369707 0 0 0
3 2 0.498904 0.500518 0.40158 0 0 0
4 2 0.504295 0.50807 0.434242 0 0 0
5 2 0.504534 0.504278 0.467274 0 0 0
6 2 0.502353 0.500413 0.500277 0 0 0
7 2 0.494686 0.499141 0.53241 0 0 0
8 2 0.491071 0.498508 0.564414 0 0 0
9 2 0.496398 0.50322 0.595539 0 0 0
10 3 0.499126 0.501579 0.626559 0 0 0
ITEM: TIMESTEP
57
ITEM: NUMBER OF ATOMS
10
ITEM: BOX BOUNDS pp pp pp
-15 15
-15 15
-15 15
ITEM: ATOMS id type xs ys zs ix iy iz
1 1 0.5 0.5 0.333333 0 0 0
2 2 0.503671 0.497855 0.369589 0 0 0
3 2 0.49884 0.500448 0.40179 0 0 0
4 2 0.504494 0.508045 0.434113 0 0 0
5 2 0.504455 0.504255 0.467318 0 0 0
6 2 0.502284 0.50072 0.500182 0 0 0
7 2 0.494778 0.498914 0.53218 0 0 0
8 2 0.490883 0.498502 0.564327 0 0 0
9 2 0.496283 0.503202 0.595499 0 0 0
10 3 0.499099 0.501631 0.626456 0 0 0
ITEM: TIMESTEP
58
ITEM: NUMBER OF ATOMS
10
ITEM: BOX BOUNDS pp pp pp
-15 15
-15 15
-15 15
ITEM: ATOMS id type xs ys zs ix iy iz
1 1 0.5 0.5 0.333333 0 0 0
2 2 0.503659 0.498144 0.369443 0 0 0
3 2 0.498809 0.500403 0.402015 0 0 0
4 2 0.504674 0.507984 0.433981 0 0 0
5 2 0.504365 0.504217 0.467356 0 0 0
6 2 0.502224 0.50103 0.500104 0 0 0
7 2 0.49488 0.498677 0.531916 0 0 0
8 2 0.490707 0.498488 0.56425 0 0 0
9 2 0.496153 0.503171 0.595441 0 0 0
10 3 0.499074 0.501682 0.626388 0 0 0
ITEM: TIMESTEP
59
ITEM: NUMBER OF ATOMS
10
ITEM: BOX BOUNDS pp pp pp
-15 15
-15 15
-15 15
ITEM: ATOMS id type xs ys zs ix iy iz
1 1 0.5 0.5 0.333333 0 0 0
2 2 0.503645 0.498414 0.369285 0 0 0
3 2 0.498786 0.500376 0.402266 0 0 0
4 2 0.504833 0.507907 0.433854 0 0 0
5 2 0.504279 0.504164 0.467386 0 0 0
6 2 0.502161 0.50133 0.500044 0 0 0
7 2 0.494994 0.498462 0.531645 0 0 0
8 2 0.490514 0.498488 0.564151 0 0 0
9 2 0.496039 0.50315 0.595351 0 0 0
10 3 0.499051 0.501731 0.626356 0 0 0
ITEM: TIMESTEP
60
ITEM: NUMBER OF ATOMS
10
ITEM: BOX BOUNDS pp pp pp
-15 15
-15 15
-15 15
ITEM: ATOMS id type xs ys zs ix iy iz
1 1 0.5 0.5 0.333333 0 0 0
2 2 0.503614 0.498667 0.369094 0 0 0
3 2 0.498761 0.50036 0.402517 0 0 0
4 2 0.504981 0.507827 0.433732 0 0 0
5 2 0.504181 0.504087 0.467376 0 0 0
6 2 0.502105 0.501617 0.499954 0 0 0
7 2 0.495132 0.49825 0.531376 0 0 0
8 2 0.490326 0.498516 0.564044 0 0 0
9 2 0.49595 0.503122 0.595233 0 0 0
10 3 0.499031 0.50178 0.626357 0 0 0
ITEM: TIMESTEP
61
ITEM: NUMBER OF ATOMS
10
ITEM: BOX BOUNDS pp pp pp
-15 15
-15 15
-15 15
ITEM: ATOMS id type xs ys zs ix iy iz
1 1 0.5 0.5 0.333333 0 0 0
2 2 0.503572 0.498946 0.368907 0 0 0
3 2 0.498744 0.500319 0.402723 0 0 0
4 2 0.505148 0.507769 0.433639 0 0 0
5 2 0.504107 0.504027 0.467361 0 0 0
6 2 0.502043 0.50189 0.499851 0 0 0
7 2 0.495283 0.498042 0.531121 0 0 0
8 2 0.490161 0.498558 0.563926 0 0 0
9 2 0.495871 0.503116 0.595124 0 0 0
10 3 0.499013 0.501827 0.626387 0 0 0